# CIF file
# This is a cif file prepared for use with the openmaterialsdb.se
#
# The cif file was imported from the Crystallography Open Database (COD)
# http://www.crystallography.net/
# based on data placed in the public domain by the contributors.
#
# The original file in cod had 
#COD-MD5: 416bc70f8a2c18aa40df9abdaa2e5fd5
#
# It was then processed with the FINDSYM tool by
# Harold T. Stokes, Branton J. Campbell, Dorian M. Hatch
# Brigham Young University, Provo, Utah, USA
# which was used to update the structure information.
#
# The original header in COD and relevant COD data follows:
#------------------------------------------------------------------------------
#$Date: 2013-03-09 16:19:25 +0000 (Sat, 09 Mar 2013) $
#$Revision: 75362 $
#$URL: file:///home/coder/svn-repositories/cod/cif/2/30/03/2300375.cif $
#------------------------------------------------------------------------------
data_2300375
loop_
_publ_author_name
'Wood, Ian G.'
'Ahmed, Jabraan'
'Dobson, David P.'
'Vo\<cadlo, Lidunka'
_publ_section_title
;
 High-pressure phase transitions and equations of state in NiSi. III. A
 new high-pressure phase of NiSi
;
_journal_coeditor_code           ks5332
_journal_issue                   1
_journal_name_full               'Journal of Applied Crystallography'
_journal_page_first              14
_journal_page_last               24
_journal_volume                  46
_journal_year                    2013
_chemical_name_systematic        ' ?'
_pd_block_id                     2012-07-25T10:11|XU1279_R2_phase1|Ian_G_Wood||
_pd_phase_name                   Alumina
_journal_paper_doi               10.1107/S0021889812047085
_[local]_cod_data_source_file    ks5332.cif
_[local]_cod_data_source_block   XU1279_R2_phase_1
_[local]_cod_cif_authors_sg_H-M  'R -3 c'
_cod_depositor_comments
;
The following automatic conversions were performed:

'_geom_bond_publ_flag' value 'N' changed to 'n' according to
/home/saulius/struct/CIF-dictionaries/cif_core.dic dictionary named
'cif_core.dic' version 2.4.2 from 2011-04-26 (14
times).

'_geom_angle_publ_flag' value 'N' changed to 'n' according
to /home/saulius/struct/CIF-dictionaries/cif_core.dic dictionary
named 'cif_core.dic' version 2.4.2 from 2011-04-26 (51 time).

Automatic conversion script
Id: cif_fix_values 1891 2012-01-12 08:04:46Z andrius 
;
_cod_original_cell_volume        254.961(22)
_cod_database_code               2300375
loop_
_pd_block_diffractogram_id
2012-07-25T10:11|XU1279_R2_H_01|Ian_G_Wood|PANalytical_X'Pert_Pro

#
# Data extracted using the FINDSYM utility follows
#
 
_audit_creation_method FINDSYM
 
_symmetry_space_group_name_H-M "R -3 2/c (hexagonal axes)"
_symmetry_space_group_name_Hall '-R 3 2"c'
_[local]_omdb_cod_original_Hall '-R 3 2"c'
_symmetry_Int_Tables_number 167
 
_cell_length_a    4.76029
_cell_length_b    4.76029
_cell_length_c    12.99200
_cell_angle_alpha 90.00000
_cell_angle_beta  90.00000
_cell_angle_gamma 120.00000
 
loop_
_space_group_symop_id
_space_group_symop_operation_xyz
1 x,y,z
2 -y,x-y,z
3 -x+y,-x,z
4 y,x,-z+1/2
5 -x,-x+y,-z+1/2
6 x-y,-y,-z+1/2
7 -x,-y,-z
8 y,-x+y,-z
9 x-y,x,-z
10 -y,-x,z+1/2
11 x,x-y,z+1/2
12 -x+y,y,z+1/2
13 x+1/3,y+2/3,z+2/3
14 -y+1/3,x-y+2/3,z+2/3
15 -x+y+1/3,-x+2/3,z+2/3
16 y+1/3,x+2/3,-z+1/6
17 -x+1/3,-x+y+2/3,-z+1/6
18 x-y+1/3,-y+2/3,-z+1/6
19 -x+1/3,-y+2/3,-z+2/3
20 y+1/3,-x+y+2/3,-z+2/3
21 x-y+1/3,x+2/3,-z+2/3
22 -y+1/3,-x+2/3,z+1/6
23 x+1/3,x-y+2/3,z+1/6
24 -x+y+1/3,y+2/3,z+1/6
25 x+2/3,y+1/3,z+1/3
26 -y+2/3,x-y+1/3,z+1/3
27 -x+y+2/3,-x+1/3,z+1/3
28 y+2/3,x+1/3,-z+5/6
29 -x+2/3,-x+y+1/3,-z+5/6
30 x-y+2/3,-y+1/3,-z+5/6
31 -x+2/3,-y+1/3,-z+1/3
32 y+2/3,-x+y+1/3,-z+1/3
33 x-y+2/3,x+1/3,-z+1/3
34 -y+2/3,-x+1/3,z+5/6
35 x+2/3,x-y+1/3,z+5/6
36 -x+y+2/3,y+1/3,z+5/6
 
loop_
_atom_site_label
_atom_site_type_symbol
_atom_site_symmetry_multiplicity
_atom_site_Wyckoff_label
_atom_site_fract_x
_atom_site_fract_y
_atom_site_fract_z
_atom_site_occupancy
Al1 Al 12 c 0.00000 0.00000 0.85219 1.0
O1 O 18 e 0.30631 0.00000 0.25000 1.0
 

