# CIF file
# This is a cif file prepared for use with the openmaterialsdb.se
#
# The cif file was imported from the Crystallography Open Database (COD)
# http://www.crystallography.net/
# based on data placed in the public domain by the contributors.
#
# The original file in cod had 
#COD-MD5: 0a45aebca044275ba7cf4f31b227531b
#
# It was then processed with the FINDSYM tool by
# Harold T. Stokes, Branton J. Campbell, Dorian M. Hatch
# Brigham Young University, Provo, Utah, USA
# which was used to update the structure information.
#
# The original header in COD and relevant COD data follows:
#------------------------------------------------------------------------------
#$Date: 2013-12-28 13:58:47 +0000 (Sat, 28 Dec 2013) $
#$Revision: 91933 $
#$URL: file:///home/coder/svn-repositories/cod/cif/2/10/32/2103296.cif $
#------------------------------------------------------------------------------
data_2103296
loop_
_publ_author_name
'Jones, G. O.'
'Thomas, P. A.'
_publ_section_title
;
 Investigation of the structure and phase transitions in the novel
 A-site substituted distorted perovskite compound Na~0.5~Bi~0.5~TiO~3~
;
_journal_issue                   2
_journal_name_full               'Acta Crystallographica Section B'
_journal_page_first              168
_journal_page_last               178
_journal_volume                  58
_journal_year                    2002
_chemical_name_systematic        'sodium bismuth titanate'
_computing_structure_refinement  GSAS
_diffrn_ambient_temperature      673
_diffrn_measurement_method       step
_diffrn_radiation_type           neutron
_diffrn_radiation_wavelength     1.594
_exptl_crystal_colour            yellow
_exptl_crystal_description       powder
_refine_ls_goodness_of_fit_all   0.786
_refine_ls_number_parameters     43
_[local]_cod_data_source_file    os0082.cif
_[local]_cod_data_source_block   673K
_[local]_cod_chemical_formula_sum_orig 'Na0.5 Bi0.5 Ti O3'
_cod_original_cell_volume        118.960(10)
_cod_database_code               2103296
_journal_paper_doi 10.1107/S0108768101020845

#
# Data extracted using the FINDSYM utility follows
#
 
_audit_creation_method FINDSYM
 
_symmetry_space_group_name_H-M "P 4 b m"
_symmetry_space_group_name_Hall 'P 4 -2ab'
_[local]_omdb_cod_original_Hall 'P 4 -2ab'
_symmetry_Int_Tables_number 100
 
_cell_length_a    5.51790
_cell_length_b    5.51790
_cell_length_c    3.90730
_cell_angle_alpha 90.00000
_cell_angle_beta  90.00000
_cell_angle_gamma 90.00000
 
loop_
_space_group_symop_id
_space_group_symop_operation_xyz
1 x,y,z
2 -x,-y,z
3 -y,x,z
4 y,-x,z
5 -x+1/2,y+1/2,z
6 x+1/2,-y+1/2,z
7 y+1/2,x+1/2,z
8 -y+1/2,-x+1/2,z
 
loop_
_atom_site_label
_atom_site_type_symbol
_atom_site_symmetry_multiplicity
_atom_site_Wyckoff_label
_atom_site_fract_x
_atom_site_fract_y
_atom_site_fract_z
_atom_site_occupancy
Na1 Na 2 b 0.50000 0.00000 0.54500 0.5
Bi1 Bi 2 b 0.50000 0.00000 0.54500 0.5
Ti1 Ti 2 a 0.00000 0.00000 0.00000 1.0
O1 O 2 a 0.00000 0.00000 0.51000 1.0
O2 O 4 c 0.72900 0.22900 0.01500 1.0
 

