# CIF file
# This is a cif file prepared for use with the openmaterialsdb.se
#
# The cif file was imported from the Crystallography Open Database (COD)
# http://www.crystallography.net/
# based on data placed in the public domain by the contributors.
#
# The original file in cod had 
#COD-MD5: feee4dd77ec5c58700a67b25787f4619
#
# It was then processed with the FINDSYM tool by
# Harold T. Stokes, Branton J. Campbell, Dorian M. Hatch
# Brigham Young University, Provo, Utah, USA
# which was used to update the structure information.
#
# The original header in COD and relevant COD data follows:
#------------------------------------------------------------------------------
#$Date: 2013-12-28 13:58:47 +0000 (Sat, 28 Dec 2013) $
#$Revision: 91933 $
#$URL: file:///home/coder/svn-repositories/cod/cif/2/10/15/2101579.cif $
#------------------------------------------------------------------------------
data_2101579
loop_
_publ_author_name
'Abrahams, S. C.'
_publ_section_title
;
 New ferroelectric inorganic materials predicted in point group
 4<i>mm</i>
;
_journal_issue                   5
_journal_name_full               'Acta Crystallographica Section B'
_journal_page_first              790
_journal_page_last               805
_journal_volume                  52
_journal_year                    1996
_diffrn_radiation_type           MoK\a
_diffrn_radiation_wavelength     0.71069
_[local]_cod_data_source_file    an0527.cif
_[local]_cod_data_source_block   AN0527e
_[local]_cod_chemical_formula_sum_orig 'As2 Ba1 Ge2'
_cod_database_code               2101579
_journal_paper_doi 10.1107/S0108768196004594

#
# Data extracted using the FINDSYM utility follows
#
 
_audit_creation_method FINDSYM
 
_symmetry_space_group_name_H-M "P 42 m c"
_symmetry_space_group_name_Hall 'P 4c -2'
_[local]_omdb_cod_original_Hall 'P 4c -2'
_symmetry_Int_Tables_number 105
 
_cell_length_a    7.61800
_cell_length_b    7.61800
_cell_length_c    8.50000
_cell_angle_alpha 90.00000
_cell_angle_beta  90.00000
_cell_angle_gamma 90.00000
 
loop_
_space_group_symop_id
_space_group_symop_operation_xyz
1 x,y,z
2 -x,-y,z
3 -y,x,z+1/2
4 y,-x,z+1/2
5 -x,y,z
6 x,-y,z
7 y,x,z+1/2
8 -y,-x,z+1/2
 
loop_
_atom_site_label
_atom_site_type_symbol
_atom_site_symmetry_multiplicity
_atom_site_Wyckoff_label
_atom_site_fract_x
_atom_site_fract_y
_atom_site_fract_z
_atom_site_occupancy
Ba1 Ba 2 a 0.00000 0.00000 -0.01210 1.0
Ba2 Ba 2 c 0.00000 0.50000 0.51210 1.0
Ge1 Ge 4 e 0.16320 0.50000 0.09470 1.0
Ge2 Ge 4 e 0.33510 0.50000 0.85430 1.0
As1 As 8 f 0.22900 0.24530 0.24370 1.0
 

