# CIF file
# This is a cif file prepared for use with the openmaterialsdb.se
#
# The cif file was imported from the Crystallography Open Database (COD)
# http://www.crystallography.net/
# based on data placed in the public domain by the contributors.
#
# The original file in cod had 
#COD-MD5: ba0ae77b51891ba7a48290ec8a016c61
#
# It was then processed with the FINDSYM tool by
# Harold T. Stokes, Branton J. Campbell, Dorian M. Hatch
# Brigham Young University, Provo, Utah, USA
# which was used to update the structure information.
#
# The original header in COD and relevant COD data follows:
#------------------------------------------------------------------------------
#$Date: 2014-07-12 08:06:43 +0000 (Sat, 12 Jul 2014) $
#$Revision: 120115 $
#$URL: file:///home/coder/svn-repositories/cod/cif/9/01/63/9016342.cif $
#------------------------------------------------------------------------------
data_9016342
loop_
_publ_author_name
'Sitepu, H.'
_publ_section_title
;
 Texture and structural refinement using neutron diffraction data from
 molybdite (MoO3) and calcite (CaCO3) powders and a Ni-rich Ni50.7Ti49.30 alloy
 Note: Aged
;
_journal_name_full               'Powder Diffraction'
_journal_page_first              315
_journal_page_last               326
_journal_volume                  24
_journal_year                    2009
_chemical_compound_source        Synthetic
_database_code_amcsd             0018901
_exptl_crystal_density_diffrn    6.445
_[local]_cod_chemical_formula_sum_orig 'Ti Ni'
_cod_database_code               9016342
_amcsd_formula_title             TiNi
_journal_paper_doi 10.1154/1.3257906

#
# Data extracted using the FINDSYM utility follows
#
 
_audit_creation_method FINDSYM
 
_symmetry_space_group_name_H-M "P 1 21/m 1"
_symmetry_space_group_name_Hall '-P 2yb'
_[local]_omdb_cod_original_Hall '-P 2c'
_symmetry_Int_Tables_number 11
 
_cell_length_a    2.88940
_cell_length_b    4.63210
_cell_length_c    4.13340
_cell_angle_alpha 90.00000
_cell_angle_beta  96.92900
_cell_angle_gamma 90.00000
 
loop_
_space_group_symop_id
_space_group_symop_operation_xyz
1 x,y,z
2 -x,y+1/2,-z
3 -x,-y,-z
4 x,-y+1/2,z
 
loop_
_atom_site_label
_atom_site_type_symbol
_atom_site_symmetry_multiplicity
_atom_site_Wyckoff_label
_atom_site_fract_x
_atom_site_fract_y
_atom_site_fract_z
_atom_site_occupancy
Ti1 Ti 2 e 0.43600 0.25000 0.70580 1.0
Ni1 Ni 2 e -0.03310 0.25000 0.82290 1.0
 

