# CIF file
# This is a cif file prepared for use with the openmaterialsdb.se
#
# The cif file was imported from the Crystallography Open Database (COD)
# http://www.crystallography.net/
# based on data placed in the public domain by the contributors.
#
# The original file in cod had 
#COD-MD5: 0ca6b10d6896231669b813a5adef80bd
#
# It was then processed with the FINDSYM tool by
# Harold T. Stokes, Branton J. Campbell, Dorian M. Hatch
# Brigham Young University, Provo, Utah, USA
# which was used to update the structure information.
#
# The original header in COD and relevant COD data follows:
#------------------------------------------------------------------------------
#$Date: 2012-02-28 12:14:52 +0000 (Tue, 28 Feb 2012) $
#$Revision: 35911 $
#$URL: file:///home/coder/svn-repositories/cod/cif/1/01/04/1010460.cif $
#------------------------------------------------------------------------------
data_1010460
_chemical_name_systematic          'Copper(I) tetraiodomercurate'
_publ_section_title
;
Strukturbestimmung der komplexen Quecksilber-Verbindungen Ag~2~ Hg I~4~
und Cu~2~ Hg I~4~
;
loop_
_publ_author_name                  'Ketelaar, J A A'
_journal_name_full
;
Zeitschrift fuer Kristallographie, Kristallgeometrie, Kristallphysik,
Kristallchemie (-144,1977)
;
_journal_coden_ASTM                ZEKGAX
_journal_volume                    80
_journal_year                      1931
_journal_page_first                190
_journal_page_last                 203
_cod_database_code 1010460

#
# Data extracted using the FINDSYM utility follows
#
 
_audit_creation_method FINDSYM
 
_symmetry_space_group_name_H-M "P -4 2 m"
_symmetry_space_group_name_Hall 'P -4 2'
_[local]_omdb_cod_original_Hall 'P -4 2'
_symmetry_Int_Tables_number 111
 
_cell_length_a    6.08000
_cell_length_b    6.08000
_cell_length_c    6.13500
_cell_angle_alpha 90.00000
_cell_angle_beta  90.00000
_cell_angle_gamma 90.00000
 
loop_
_space_group_symop_id
_space_group_symop_operation_xyz
1 x,y,z
2 x,-y,-z
3 -x,y,-z
4 -x,-y,z
5 y,x,z
6 y,-x,-z
7 -y,x,-z
8 -y,-x,z
 
loop_
_atom_site_label
_atom_site_type_symbol
_atom_site_symmetry_multiplicity
_atom_site_Wyckoff_label
_atom_site_fract_x
_atom_site_fract_y
_atom_site_fract_z
_atom_site_occupancy
Hg1 Hg 1 a 0.00000 0.00000 0.00000 1.0
Cu1 Cu 2 f 0.50000 0.00000 0.50000 1.0
I1 I 4 n 0.25500 0.25500 0.27500 1.0
 

