# CIF file
# This is a cif file prepared for use with the openmaterialsdb.se
#
# The cif file was imported from the Crystallography Open Database (COD)
# http://www.crystallography.net/
# based on data placed in the public domain by the contributors.
#
# The original file in cod had 
#COD-MD5: 66a12ccc4f02f8aeaf5936e9a55ca8d4
#
# It was then processed with the FINDSYM tool by
# Harold T. Stokes, Branton J. Campbell, Dorian M. Hatch
# Brigham Young University, Provo, Utah, USA
# which was used to update the structure information.
#
# The original header in COD and relevant COD data follows:
#------------------------------------------------------------------------------
#$Date: 2013-05-05 14:21:46 +0000 (Sun, 05 May 2013) $
#$Revision: 85285 $
#$URL: file:///home/coder/svn-repositories/cod/cif/9/00/77/9007723.cif $
#------------------------------------------------------------------------------
data_9007723
loop_
_publ_author_name
'Blower, S. K.'
'Greaves, C.'
_publ_section_title
;
 The structure of beta-Bi2O3 from powder neutron diffraction data
;
_journal_name_full               'Acta Crystallographica, Section C'
_journal_page_first              587
_journal_page_last               589
_journal_volume                  44
_journal_year                    1988
_exptl_crystal_density_diffrn    9.169
_cod_database_code               9007723

#
# Data extracted using the FINDSYM utility follows
#
 
_audit_creation_method FINDSYM
 
_symmetry_space_group_name_H-M "P -4 21 c"
_symmetry_space_group_name_Hall 'P -4 2n'
_[local]_omdb_cod_original_Hall 'P -4 2n'
_symmetry_Int_Tables_number 114
 
_cell_length_a    7.73900
_cell_length_b    7.73900
_cell_length_c    5.63600
_cell_angle_alpha 90.00000
_cell_angle_beta  90.00000
_cell_angle_gamma 90.00000
 
loop_
_space_group_symop_id
_space_group_symop_operation_xyz
1 x,y,z
2 x+1/2,-y+1/2,-z+1/2
3 -x+1/2,y+1/2,-z+1/2
4 -x,-y,z
5 y+1/2,x+1/2,z+1/2
6 y,-x,-z
7 -y,x,-z
8 -y+1/2,-x+1/2,z+1/2
 
loop_
_atom_site_label
_atom_site_type_symbol
_atom_site_symmetry_multiplicity
_atom_site_Wyckoff_label
_atom_site_fract_x
_atom_site_fract_y
_atom_site_fract_z
_atom_site_occupancy
Bi1 Bi 8 e 0.51740 0.75450 0.23850 1.0
O1 O 4 d 0.00000 0.50000 0.10610 1.0
O2 O 8 e 0.79050 0.81250 0.02860 1.0
 

