# CIF file
# This is a cif file prepared for use with the openmaterialsdb.se
#
# The cif file was imported from the Crystallography Open Database (COD)
# http://www.crystallography.net/
# based on data placed in the public domain by the contributors.
#
# The original file in cod had 
#COD-MD5: 01d22234a28abf4ab6747e58e749489c
#
# It was then processed with the FINDSYM tool by
# Harold T. Stokes, Branton J. Campbell, Dorian M. Hatch
# Brigham Young University, Provo, Utah, USA
# which was used to update the structure information.
#
# The original header in COD and relevant COD data follows:
#------------------------------------------------------------------------------
#$Date: 2013-05-09 13:53:25 +0000 (Thu, 09 May 2013) $
#$Revision: 86000 $
#$URL: file:///home/coder/svn-repositories/cod/cif/9/01/54/9015418.cif $
#------------------------------------------------------------------------------
data_9015418
loop_
_publ_author_name
'Clark, G.'
'Reynolds, D.'
_publ_section_title
;
 The crystal structure of zinc meta-antimonate Zn (Sb O3)2
 _cod_database_code 1010617
;
_journal_name_full               'Zeitschrift fur Kristallographie'
_journal_page_first              185
_journal_page_last               190
_journal_volume                  98
_journal_year                    1938
_database_code_amcsd             0017499
_exptl_crystal_density_diffrn    3.593
_[local]_cod_chemical_formula_sum_orig 'Zn Sb2'
_cod_database_code               9015418
_amcsd_formula_title             'O6 Sb2 Zn'

#
# Data extracted using the FINDSYM utility follows
#
 
_audit_creation_method FINDSYM
 
_symmetry_space_group_name_H-M "P -4 n 2"
_symmetry_space_group_name_Hall 'P -4 -2n'
_[local]_omdb_cod_original_Hall 'P -4 -2n'
_symmetry_Int_Tables_number 118
 
_cell_length_a    6.58500
_cell_length_b    6.58500
_cell_length_c    6.58500
_cell_angle_alpha 90.00000
_cell_angle_beta  90.00000
_cell_angle_gamma 90.00000
 
loop_
_space_group_symop_id
_space_group_symop_operation_xyz
1 x,y,z
2 -x,-y,z
3 -y+1/2,-x+1/2,-z+1/2
4 y+1/2,x+1/2,-z+1/2
5 -x+1/2,y+1/2,z+1/2
6 x+1/2,-y+1/2,z+1/2
7 y,-x,-z
8 -y,x,-z
 
loop_
_atom_site_label
_atom_site_type_symbol
_atom_site_symmetry_multiplicity
_atom_site_Wyckoff_label
_atom_site_fract_x
_atom_site_fract_y
_atom_site_fract_z
_atom_site_occupancy
Zn1 Zn 2 a 0.00000 0.00000 0.00000 1.0
Sb1 Sb 4 f 0.34000 0.16000 0.25000 1.0
 

