# CIF file
# This is a cif file prepared for use with the openmaterialsdb.se
#
# The cif file was imported from the Crystallography Open Database (COD)
# http://www.crystallography.net/
# based on data placed in the public domain by the contributors.
#
# The original file in cod had 
#COD-MD5: 18c67192fdedb4dd26ca39f7a26bb7a9
#
# It was then processed with the FINDSYM tool by
# Harold T. Stokes, Branton J. Campbell, Dorian M. Hatch
# Brigham Young University, Provo, Utah, USA
# which was used to update the structure information.
#
# The original header in COD and relevant COD data follows:
#------------------------------------------------------------------------------
#$Date: 2013-05-01 14:20:11 +0000 (Wed, 01 May 2013) $
#$Revision: 83752 $
#$URL: file:///home/coder/svn-repositories/cod/cif/7/20/94/7209420.cif $
#------------------------------------------------------------------------------
data_7209420
loop_
_publ_author_name
'Sinnen, H.D.'
'Schuster, H.U.'
_publ_section_title
;
 Darstellung und Struktur des K Au4 Sn2
;
_journal_name_full
;
Zeitschrift fuer Naturforschung, Teil B. Anorganische Chemie, Organische
 Chemie (33,1978-41,1986)
;
_journal_page_first              1077
_journal_page_last               1079
_journal_volume                  33
_journal_year                    1978
_chemical_name_systematic        'Au4 K Sn2'
_citation_journal_id_ASTM        ZNBAD2
_[local]_cod_data_source_file    gold_642.cif
_[local]_cod_data_source_block   Au4K1Sn2
_[local]_cod_chemical_formula_sum_orig 'Au4 K1 Sn2'
_cod_original_cell_volume        640.0873
_cod_database_code               7209420

#
# Data extracted using the FINDSYM utility follows
#
 
_audit_creation_method FINDSYM
 
_symmetry_space_group_name_H-M "I -4 c 2"
_symmetry_space_group_name_Hall 'I -4 -2c'
_[local]_omdb_cod_original_Hall 'I -4 -2c'
_symmetry_Int_Tables_number 120
 
_cell_length_a    8.84700
_cell_length_b    8.84700
_cell_length_c    8.17800
_cell_angle_alpha 90.00000
_cell_angle_beta  90.00000
_cell_angle_gamma 90.00000
 
loop_
_space_group_symop_id
_space_group_symop_operation_xyz
1 x,y,z
2 -x,-y,z
3 -y,-x,-z+1/2
4 y,x,-z+1/2
5 -x,y,z+1/2
6 x,-y,z+1/2
7 y,-x,-z
8 -y,x,-z
9 x+1/2,y+1/2,z+1/2
10 -x+1/2,-y+1/2,z+1/2
11 -y+1/2,-x+1/2,-z
12 y+1/2,x+1/2,-z
13 -x+1/2,y+1/2,z
14 x+1/2,-y+1/2,z
15 y+1/2,-x+1/2,-z+1/2
16 -y+1/2,x+1/2,-z+1/2
 
loop_
_atom_site_label
_atom_site_type_symbol
_atom_site_symmetry_multiplicity
_atom_site_Wyckoff_label
_atom_site_fract_x
_atom_site_fract_y
_atom_site_fract_z
_atom_site_occupancy
K1 K 4 d 0.00000 0.50000 0.00000 1.0
Au1 Au 16 i 0.64520 0.34250 0.41490 1.0
Sn1 Sn 8 e 0.64400 0.64400 0.25000 1.0
 

