# CIF file
# This is a cif file prepared for use with the openmaterialsdb.se
#
# The cif file was imported from the Crystallography Open Database (COD)
# http://www.crystallography.net/
# based on data placed in the public domain by the contributors.
#
# The original file in cod had 
#COD-MD5: 8a66cb452801213fb01a5fc931712886
#
# It was then processed with the FINDSYM tool by
# Harold T. Stokes, Branton J. Campbell, Dorian M. Hatch
# Brigham Young University, Provo, Utah, USA
# which was used to update the structure information.
#
# The original header in COD and relevant COD data follows:
#------------------------------------------------------------------------------
#$Date: 2014-07-11 14:35:18 +0000 (Fri, 11 Jul 2014) $
#$Revision: 120071 $
#$URL: file:///home/coder/svn-repositories/cod/cif/1/51/11/1511152.cif $
#------------------------------------------------------------------------------
data_1511152
loop_
_publ_author_name
'Mueller, A.'
'Wever, F.'
_publ_section_title
;
 Ueber das Zweistoffsystem Eisen-Bor und ueber die Struktur des
 Eisenborides Fe4 B2
;
_journal_name_full
'Zeitschrift fuer Anorganische und Allgemeine Chemie'
_journal_page_first              317
_journal_page_last               336
_journal_volume                  192
_journal_year                    1930
_chemical_name_systematic        'Fe2 B'
_citation_journal_id_ASTM        ZAACAB
_[local]_cod_data_source_file    boron0-1_254.cif
_[local]_cod_data_source_block   B1Fe2
_[local]_cod_chemical_formula_sum_orig 'B1 Fe2'
_cod_original_cell_volume        110.1959
_cod_database_code               1511152
_journal_paper_doi 10.1002/zaac.19301920125

#
# Data extracted using the FINDSYM utility follows
#
 
_audit_creation_method FINDSYM
 
_symmetry_space_group_name_H-M "I -4 2 m"
_symmetry_space_group_name_Hall 'I -4 2'
_[local]_omdb_cod_original_Hall 'I -4 2'
_symmetry_Int_Tables_number 121
 
_cell_length_a    5.09800
_cell_length_b    5.09800
_cell_length_c    4.24000
_cell_angle_alpha 90.00000
_cell_angle_beta  90.00000
_cell_angle_gamma 90.00000
 
loop_
_space_group_symop_id
_space_group_symop_operation_xyz
1 x,y,z
2 x,-y,-z
3 -x,y,-z
4 -x,-y,z
5 y,x,z
6 y,-x,-z
7 -y,x,-z
8 -y,-x,z
9 x+1/2,y+1/2,z+1/2
10 x+1/2,-y+1/2,-z+1/2
11 -x+1/2,y+1/2,-z+1/2
12 -x+1/2,-y+1/2,z+1/2
13 y+1/2,x+1/2,z+1/2
14 y+1/2,-x+1/2,-z+1/2
15 -y+1/2,x+1/2,-z+1/2
16 -y+1/2,-x+1/2,z+1/2
 
loop_
_atom_site_label
_atom_site_type_symbol
_atom_site_symmetry_multiplicity
_atom_site_Wyckoff_label
_atom_site_fract_x
_atom_site_fract_y
_atom_site_fract_z
_atom_site_occupancy
B1 B 2 a 0.00000 0.00000 0.00000 1.0
B2 B 2 b 0.00000 0.00000 0.50000 1.0
Fe1 Fe 8 i 0.66667 0.66667 0.30000 1.0
 

