# CIF file
# This is a cif file prepared for use with the openmaterialsdb.se
#
# The cif file was imported from the Crystallography Open Database (COD)
# http://www.crystallography.net/
# based on data placed in the public domain by the contributors.
#
# The original file in cod had 
#COD-MD5: 7d5240d2c1df5d1dcadca66c09224d55
#
# It was then processed with the FINDSYM tool by
# Harold T. Stokes, Branton J. Campbell, Dorian M. Hatch
# Brigham Young University, Provo, Utah, USA
# which was used to update the structure information.
#
# The original header in COD and relevant COD data follows:
#------------------------------------------------------------------------------
#$Date: 2014-07-11 13:38:41 +0000 (Fri, 11 Jul 2014) $
#$Revision: 120070 $
#$URL: file:///home/coder/svn-repositories/cod/cif/5/90/00/5900027.cif $
#------------------------------------------------------------------------------
data_5900027
_journal_name_full               'Acta Cryst'
_journal_page_first              222
_journal_volume                  3
_journal_year                    1950
_[local]_cod_chemical_formula_sum_orig 'C3 H10 N Cl'
_chemical_name_systematic        'Trimethylamine hydrogen chloride'
_diffrn_ambient_temperature      293
_[local]_cod_data_source_file    027_2_trimethylamine_hydrogen_chloride.cif
_[local]_cod_data_source_block   2_trimethylamine_hydrogen_chloride
loop_
_citation_id
_citation_coordinate_linkage
_citation_title
_citation_book_title
_citation_country
_citation_page_first
_citation_page_last
_citation_year
_citation_book_publisher
_[local]_cod_citation_special_details
1 yes ? 'Organicheskaja Kristallokhimija' USSR ? ? 1955
'Izdatel'stvo Akademii Nauk SSSR'
;

Coordinates are presented as published in this book, Kitajgorodskij's
"Organicheskaja Kristallokhimija", keyed in manually.

Saulius Gra\<zulis
;
loop_
_citation_author_citation_id
_citation_author_name
1 'A. I. Kitajgorodskij'
_cod_database_code 5900027
_journal_paper_doi 10.1107/S0365110X50000550

#
# Data extracted using the FINDSYM utility follows
#
 
_audit_creation_method FINDSYM
 
_symmetry_space_group_name_H-M "P 4/m 2/m 2/m"
_symmetry_space_group_name_Hall '-P 4 2'
_[local]_omdb_cod_original_Hall 'P 4ab 2ab -1ab'
_symmetry_Int_Tables_number 123
 
_cell_length_a    4.39820
_cell_length_b    4.39820
_cell_length_c    7.37700
_cell_angle_alpha 90.00000
_cell_angle_beta  90.00000
_cell_angle_gamma 90.00000
 
loop_
_space_group_symop_id
_space_group_symop_operation_xyz
1 x,y,z
2 x,-y,-z
3 -x,y,-z
4 -x,-y,z
5 -y,-x,-z
6 -y,x,z
7 y,-x,z
8 y,x,-z
9 -x,-y,-z
10 -x,y,z
11 x,-y,z
12 x,y,-z
13 y,x,z
14 y,-x,-z
15 -y,x,-z
16 -y,-x,z
 
loop_
_atom_site_label
_atom_site_type_symbol
_atom_site_symmetry_multiplicity
_atom_site_Wyckoff_label
_atom_site_fract_x
_atom_site_fract_y
_atom_site_fract_z
_atom_site_occupancy
Cl1 Cl 1 a 0.00000 0.00000 0.00000 1.0
 

