# CIF file
# This is a cif file prepared for use with the openmaterialsdb.se
#
# The cif file was imported from the Crystallography Open Database (COD)
# http://www.crystallography.net/
# based on data placed in the public domain by the contributors.
#
# The original file in cod had 
#COD-MD5: 6e284fac5a9a029b54904e1a484d8db5
#
# It was then processed with the FINDSYM tool by
# Harold T. Stokes, Branton J. Campbell, Dorian M. Hatch
# Brigham Young University, Provo, Utah, USA
# which was used to update the structure information.
#
# The original header in COD and relevant COD data follows:
#------------------------------------------------------------------------------
#$Date: 2014-07-12 08:06:43 +0000 (Sat, 12 Jul 2014) $
#$Revision: 120115 $
#$URL: file:///home/coder/svn-repositories/cod/cif/9/01/16/9011655.cif $
#------------------------------------------------------------------------------
data_9011655
loop_
_publ_author_name
'Vohra, Y. K.'
'Grosshans, W.'
'Holzapfel, W. B.'
_publ_section_title
;
 High-pressure phase transformation in scandium
 Locality: synthetic
 Sample: at P = 33.5 GPa
;
_journal_name_full               'Physical Review B'
_journal_page_first              6019
_journal_page_last               6021
_journal_volume                  25
_journal_year                    1982
_chemical_name_common            Scandium
_diffrn_ambient_pressure         3.35e+07
_exptl_crystal_density_diffrn    4.197
_[local]_cod_cif_authors_sg_H-M  'P 4/n m m'
_cod_database_code               9011655
_journal_paper_doi 10.1103/PhysRevB.25.6019

#
# Data extracted using the FINDSYM utility follows
#
 
_audit_creation_method FINDSYM
 
_symmetry_space_group_name_H-M "P 4/n 21/m 2/m (origin choice 2)"
_symmetry_space_group_name_Hall '-P 4a 2a'
_[local]_omdb_cod_original_Hall 'P 4ab 2ab -1ab'
_symmetry_Int_Tables_number 129
 
_cell_length_a    4.73000
_cell_length_b    4.73000
_cell_length_c    3.18000
_cell_angle_alpha 90.00000
_cell_angle_beta  90.00000
_cell_angle_gamma 90.00000
 
loop_
_space_group_symop_id
_space_group_symop_operation_xyz
1 x,y,z
2 x+1/2,-y,-z
3 -x,y+1/2,-z
4 -x+1/2,-y+1/2,z
5 -y,-x,-z
6 -y+1/2,x,z
7 y,-x+1/2,z
8 y+1/2,x+1/2,-z
9 -x,-y,-z
10 -x+1/2,y,z
11 x,-y+1/2,z
12 x+1/2,y+1/2,-z
13 y,x,z
14 y+1/2,-x,-z
15 -y,x+1/2,-z
16 -y+1/2,-x+1/2,z
 
loop_
_atom_site_label
_atom_site_type_symbol
_atom_site_symmetry_multiplicity
_atom_site_Wyckoff_label
_atom_site_fract_x
_atom_site_fract_y
_atom_site_fract_z
_atom_site_occupancy
Sc1 Sc 2 c 0.25000 0.25000 0.62500 1.0
Sc2 Sc 2 a 0.75000 0.25000 0.00000 1.0
 

