# CIF file
# This is a cif file prepared for use with the openmaterialsdb.se
#
# The cif file was imported from the Crystallography Open Database (COD)
# http://www.crystallography.net/
# based on data placed in the public domain by the contributors.
#
# The original file in cod had 
#COD-MD5: 731b7e36cbfa40f8618a1508019f504d
#
# It was then processed with the FINDSYM tool by
# Harold T. Stokes, Branton J. Campbell, Dorian M. Hatch
# Brigham Young University, Provo, Utah, USA
# which was used to update the structure information.
#
# The original header in COD and relevant COD data follows:
#------------------------------------------------------------------------------
#$Date: 2014-07-11 14:35:18 +0000 (Fri, 11 Jul 2014) $
#$Revision: 120071 $
#$URL: file:///home/coder/svn-repositories/cod/cif/1/01/13/1011334.cif $
#------------------------------------------------------------------------------
data_1011334
loop_
_publ_author_name
'Bannister, F A'
'Hey, M H'
_publ_section_title
;
Determination of minerals in platinum concentrates from the transvall
by x-ray methods.
;
_journal_coden_ASTM              MIASA6
_journal_name_full
;
Mineralogical Magazine and Journal of the Mineralogical Society (1876-
1968)
;
_journal_page_first              188
_journal_page_last               206
_journal_volume                  23
_journal_year                    1932
_chemical_compound_source        'from Transvaal'
_chemical_name_mineral           Cooperite
_chemical_name_systematic        'Platinum sulfide'
_cod_database_code               1011334
_journal_paper_doi 10.1180/minmag.1932.023.138.05

#
# Data extracted using the FINDSYM utility follows
#
 
_audit_creation_method FINDSYM
 
_symmetry_space_group_name_H-M "P 42/m 2/m 2/c"
_symmetry_space_group_name_Hall '-P 4c 2'
_[local]_omdb_cod_original_Hall '-P 4c 2'
_symmetry_Int_Tables_number 131
 
_cell_length_a    3.47000
_cell_length_b    3.47000
_cell_length_c    6.10000
_cell_angle_alpha 90.00000
_cell_angle_beta  90.00000
_cell_angle_gamma 90.00000
 
loop_
_space_group_symop_id
_space_group_symop_operation_xyz
1 x,y,z
2 x,-y,-z
3 -x,y,-z
4 -x,-y,z
5 -y,-x,-z+1/2
6 -y,x,z+1/2
7 y,-x,z+1/2
8 y,x,-z+1/2
9 -x,-y,-z
10 -x,y,z
11 x,-y,z
12 x,y,-z
13 y,x,z+1/2
14 y,-x,-z+1/2
15 -y,x,-z+1/2
16 -y,-x,z+1/2
 
loop_
_atom_site_label
_atom_site_type_symbol
_atom_site_symmetry_multiplicity
_atom_site_Wyckoff_label
_atom_site_fract_x
_atom_site_fract_y
_atom_site_fract_z
_atom_site_occupancy
Pt1 Pt 2 d 0.00000 0.50000 0.50000 1.0
S1 S 2 e 0.00000 0.00000 0.25000 1.0
 

