# CIF file
# This is a cif file prepared for use with the openmaterialsdb.se
#
# The cif file was imported from the Crystallography Open Database (COD)
# http://www.crystallography.net/
# based on data placed in the public domain by the contributors.
#
# The original file in cod had 
#COD-MD5: 40f02cf0378628f2b9f5ada6a931f1af
#
# It was then processed with the FINDSYM tool by
# Harold T. Stokes, Branton J. Campbell, Dorian M. Hatch
# Brigham Young University, Provo, Utah, USA
# which was used to update the structure information.
#
# The original header in COD and relevant COD data follows:
#------------------------------------------------------------------------------
#$Date: 2014-07-11 14:35:18 +0000 (Fri, 11 Jul 2014) $
#$Revision: 120071 $
#$URL: file:///home/coder/svn-repositories/cod/cif/1/50/93/1509333.cif $
#------------------------------------------------------------------------------
data_1509333
loop_
_publ_author_name
'Matsumoto, K.'
'Hagiwara, R.'
'Tamada, O.'
'Ito, Y.'
_publ_section_title
;
 Crystal structures of Ag A F6 (A = P, As, Sb, Nb, Ta) at ambient
 temperatures
;
_journal_name_full               'Journal of Fluorine Chemistry'
_journal_page_first              117
_journal_page_last               122
_journal_volume                  110
_journal_year                    2001
_chemical_name_systematic        'Ag (Ta F6)'
_citation_journal_id_ASTM        JFLCAR
_[local]_cod_data_source_file    silver1-2_250.cif
_[local]_cod_data_source_block   Ag1F6Ta1
_[local]_cod_chemical_formula_sum_orig 'Ag1 F6 Ta1'
_cod_original_cell_volume        239.6379
_cod_database_code               1509333
_journal_paper_doi 10.1016/S0022-1139(01)00418-3

#
# Data extracted using the FINDSYM utility follows
#
 
_audit_creation_method FINDSYM
 
_symmetry_space_group_name_H-M "P 42/m 2/c 2/m"
_symmetry_space_group_name_Hall '-P 4c 2c'
_[local]_omdb_cod_original_Hall '-P 4c 2c'
_symmetry_Int_Tables_number 132
 
_cell_length_a    4.99490
_cell_length_b    4.99490
_cell_length_c    9.60510
_cell_angle_alpha 90.00000
_cell_angle_beta  90.00000
_cell_angle_gamma 90.00000
 
loop_
_space_group_symop_id
_space_group_symop_operation_xyz
1 x,y,z
2 x,-y,-z+1/2
3 -x,y,-z+1/2
4 -x,-y,z
5 -y,-x,-z
6 -y,x,z+1/2
7 y,-x,z+1/2
8 y,x,-z
9 -x,-y,-z
10 -x,y,z+1/2
11 x,-y,z+1/2
12 x,y,-z
13 y,x,z
14 y,-x,-z+1/2
15 -y,x,-z+1/2
16 -y,-x,z
 
loop_
_atom_site_label
_atom_site_type_symbol
_atom_site_symmetry_multiplicity
_atom_site_Wyckoff_label
_atom_site_fract_x
_atom_site_fract_y
_atom_site_fract_z
_atom_site_occupancy
F1 F 4 j 0.73300 0.73300 0.50000 1.0
F2 F 8 o 0.81200 0.81200 0.86500 1.0
Ta1 Ta 2 a 0.00000 0.00000 0.00000 1.0
Ag1 Ag 2 d 0.50000 0.50000 0.25000 1.0
 

