# CIF file
# This is a cif file prepared for use with the openmaterialsdb.se
#
# The cif file was imported from the Crystallography Open Database (COD)
# http://www.crystallography.net/
# based on data placed in the public domain by the contributors.
#
# The original file in cod had 
#COD-MD5: f8dac8e46bbf5aab49f3b4290dcf8e7d
#
# It was then processed with the FINDSYM tool by
# Harold T. Stokes, Branton J. Campbell, Dorian M. Hatch
# Brigham Young University, Provo, Utah, USA
# which was used to update the structure information.
#
# The original header in COD and relevant COD data follows:
#------------------------------------------------------------------------------
#$Date: 2014-07-11 14:35:18 +0000 (Fri, 11 Jul 2014) $
#$Revision: 120071 $
#$URL: file:///home/coder/svn-repositories/cod/cif/1/51/16/1511682.cif $
#------------------------------------------------------------------------------
data_1511682
loop_
_publ_author_name
'Lindemann, A.'
'Doech, M.'
'Nilges, T.'
'Krebs, B.'
'Puetz, S.'
'Eckert, H.'
'Hammerschmidt, A.'
_publ_section_title
;
 Li7 B7 Se15: A novel selenoborate with a zeolite-like polymeric anion
 structure
;
_journal_name_full               'Solid State Sciences'
_journal_page_first              764
_journal_page_last               772
_journal_volume                  8
_journal_year                    2006
_chemical_name_systematic        'Li7.2 B7 Se15'
_citation_journal_id_ASTM        SSSCFJ
_[local]_cod_data_source_file    boron4-x_340.cif
_[local]_cod_data_source_block   B7Li7.2Se15
_cod_database_code               1511682
_journal_paper_doi 10.1016/j.solidstatesciences.2006.04.002

#
# Data extracted using the FINDSYM utility follows
#
 
_audit_creation_method FINDSYM
 
_symmetry_space_group_name_H-M "P 42/n 2/b 2/c (origin choice 2)"
_symmetry_space_group_name_Hall '-P 4ac 2b'
_[local]_omdb_cod_original_Hall '-P 4ac 2b'
_symmetry_Int_Tables_number 133
 
_cell_length_a    11.41200
_cell_length_b    11.41200
_cell_length_c    16.41310
_cell_angle_alpha 90.00000
_cell_angle_beta  90.00000
_cell_angle_gamma 90.00000
 
loop_
_space_group_symop_id
_space_group_symop_operation_xyz
1 x,y,z
2 x,-y+1/2,-z
3 -x+1/2,y,-z
4 -x+1/2,-y+1/2,z
5 -y+1/2,-x+1/2,-z+1/2
6 -y+1/2,x,z+1/2
7 y,-x+1/2,z+1/2
8 y,x,-z+1/2
9 -x,-y,-z
10 -x,y+1/2,z
11 x+1/2,-y,z
12 x+1/2,y+1/2,-z
13 y+1/2,x+1/2,z+1/2
14 y+1/2,-x,-z+1/2
15 -y,x+1/2,-z+1/2
16 -y,-x,z+1/2
 
loop_
_atom_site_label
_atom_site_type_symbol
_atom_site_symmetry_multiplicity
_atom_site_Wyckoff_label
_atom_site_fract_x
_atom_site_fract_y
_atom_site_fract_z
_atom_site_occupancy
B1 B 4 a 0.25000 0.25000 0.00000 1.0
B2 B 8 j 0.50280 0.50280 0.25000 1.0
B3 B 16 k 0.74450 0.59910 0.82860 1.0
Se1 Se 4 c 0.25000 0.25000 0.25000 1.0
Se2 Se 16 k 0.44329 0.41272 0.64479 1.0
Se3 Se 16 k 0.64599 0.64299 -0.07155 1.0
Se4 Se 8 h 0.64643 0.25000 0.00000 1.0
Se5 Se 16 k 0.67060 0.45950 0.77220 1.0
Li1 Li 8 i 0.56500 0.25000 0.50000 0.76
Li2 Li 16 k 0.56000 0.03700 -0.00400 0.44
Li3 Li 16 k 0.76350 0.45130 0.63350 1.0
 

