# CIF file
# This is a cif file prepared for use with the openmaterialsdb.se
#
# The cif file was imported from the Crystallography Open Database (COD)
# http://www.crystallography.net/
# based on data placed in the public domain by the contributors.
#
# The original file in cod had 
#COD-MD5: 13d0c9d98f8d3e7ad010294833c7a112
#
# It was then processed with the FINDSYM tool by
# Harold T. Stokes, Branton J. Campbell, Dorian M. Hatch
# Brigham Young University, Provo, Utah, USA
# which was used to update the structure information.
#
# The original header in COD and relevant COD data follows:
#------------------------------------------------------------------------------
#$Date: 2014-07-11 14:35:18 +0000 (Fri, 11 Jul 2014) $
#$Revision: 120071 $
#$URL: file:///home/coder/svn-repositories/cod/cif/1/01/10/1011004.cif $
#------------------------------------------------------------------------------
data_1011004
loop_
_publ_author_name
'Schrewelius, N'
_publ_section_title
;
Roentgenuntersuchung der Verbindungen Na Sb (O H)6, Na Sb F6, Na Sb O3
und gleichartiger Stoffe
;
_journal_coden_ASTM              ZAACAB
_journal_name_full
;
Zeitschrift fuer Anorganische und Allgemeine Chemie
;
_journal_page_first              241
_journal_page_last               254
_journal_volume                  238
_journal_year                    1938
_chemical_compound_source        'synthetic from solution'
_chemical_name_mineral           Mopungite
_chemical_name_systematic        'Sodium hexahydroxoantimonate'
_exptl_crystal_density_meas      3.21
_[local]_cod_cif_authors_sg_H-M  'P 42/n Z'
_cod_database_code               1011004
_journal_paper_doi 10.1002/zaac.19382380209

#
# Data extracted using the FINDSYM utility follows
#
 
_audit_creation_method FINDSYM
 
_symmetry_space_group_name_H-M "P 42/n 2/n 2/m (origin choice 2)"
_symmetry_space_group_name_Hall '-P 4ac 2bc'
_[local]_omdb_cod_original_Hall '-P 4bc'
_symmetry_Int_Tables_number 134
 
_cell_length_a    8.01000
_cell_length_b    8.01000
_cell_length_c    7.88000
_cell_angle_alpha 90.00000
_cell_angle_beta  90.00000
_cell_angle_gamma 90.00000
 
loop_
_space_group_symop_id
_space_group_symop_operation_xyz
1 x,y,z
2 x,-y+1/2,-z+1/2
3 -x+1/2,y,-z+1/2
4 -x+1/2,-y+1/2,z
5 -y+1/2,-x+1/2,-z
6 -y+1/2,x,z+1/2
7 y,-x+1/2,z+1/2
8 y,x,-z
9 -x,-y,-z
10 -x,y+1/2,z+1/2
11 x+1/2,-y,z+1/2
12 x+1/2,y+1/2,-z
13 y+1/2,x+1/2,z
14 y+1/2,-x,-z+1/2
15 -y,x+1/2,-z+1/2
16 -y,-x,z
 
loop_
_atom_site_label
_atom_site_type_symbol
_atom_site_symmetry_multiplicity
_atom_site_Wyckoff_label
_atom_site_fract_x
_atom_site_fract_y
_atom_site_fract_z
_atom_site_occupancy
Na1 Na 4 e 0.00000 0.00000 0.50000 1.0
Sb1 Sb 4 f 0.00000 0.00000 0.00000 1.0
O1 O 8 m 0.67500 0.32500 -0.02500 1.0
O2 O 16 n 0.78000 0.02500 0.84000 1.0
 

