# CIF file
# This is a cif file prepared for use with the openmaterialsdb.se
#
# The cif file was imported from the Crystallography Open Database (COD)
# http://www.crystallography.net/
# based on data placed in the public domain by the contributors.
#
# The original file in cod had 
#COD-MD5: 174a23729fc6658585a30cc1e3c8e14b
#
# It was then processed with the FINDSYM tool by
# Harold T. Stokes, Branton J. Campbell, Dorian M. Hatch
# Brigham Young University, Provo, Utah, USA
# which was used to update the structure information.
#
# The original header in COD and relevant COD data follows:
#------------------------------------------------------------------------------
#$Date: 2013-05-09 13:53:25 +0000 (Thu, 09 May 2013) $
#$Revision: 86000 $
#$URL: file:///home/coder/svn-repositories/cod/cif/9/01/63/9016348.cif $
#------------------------------------------------------------------------------
data_9016348
loop_
_publ_author_name
'Hassel, O.'
_publ_section_title
;
 Roentgenographische Untersuchung des tetragonal kristallisierenden
 Quecksilberzyanids.
 _cod_database_code 1010499
;
_journal_name_full               'Zeitschrift fur Kristallographie'
_journal_page_first              218
_journal_page_last               223
_journal_volume                  64
_journal_year                    1926
_database_code_amcsd             0017415
_exptl_crystal_density_diffrn    6.389
_cod_database_code               9016348
_amcsd_formula_title             'Hg N2'

#
# Data extracted using the FINDSYM utility follows
#
 
_audit_creation_method FINDSYM
 
_symmetry_space_group_name_H-M "P 42/m 21/n 2/m"
_symmetry_space_group_name_Hall '-P 4n 2n'
_[local]_omdb_cod_original_Hall 'I -4 2bw'
_symmetry_Int_Tables_number 136
 
_cell_length_a    6.83772
_cell_length_b    6.83772
_cell_length_c    4.46000
_cell_angle_alpha 90.00000
_cell_angle_beta  90.00000
_cell_angle_gamma 90.00000
 
loop_
_space_group_symop_id
_space_group_symop_operation_xyz
1 x,y,z
2 x+1/2,-y+1/2,-z+1/2
3 -x+1/2,y+1/2,-z+1/2
4 -x,-y,z
5 -y,-x,-z
6 -y+1/2,x+1/2,z+1/2
7 y+1/2,-x+1/2,z+1/2
8 y,x,-z
9 -x,-y,-z
10 -x+1/2,y+1/2,z+1/2
11 x+1/2,-y+1/2,z+1/2
12 x,y,-z
13 y,x,z
14 y+1/2,-x+1/2,-z+1/2
15 -y+1/2,x+1/2,-z+1/2
16 -y,-x,z
 
loop_
_atom_site_label
_atom_site_type_symbol
_atom_site_symmetry_multiplicity
_atom_site_Wyckoff_label
_atom_site_fract_x
_atom_site_fract_y
_atom_site_fract_z
_atom_site_occupancy
Hg1 Hg 4 f 0.46000 0.46000 0.00000 1.0
 

