# CIF file
# This is a cif file prepared for use with the openmaterialsdb.se
#
# The cif file was imported from the Crystallography Open Database (COD)
# http://www.crystallography.net/
# based on data placed in the public domain by the contributors.
#
# The original file in cod had 
#COD-MD5: 312a931fdec8e98c55532f42c1828341
#
# It was then processed with the FINDSYM tool by
# Harold T. Stokes, Branton J. Campbell, Dorian M. Hatch
# Brigham Young University, Provo, Utah, USA
# which was used to update the structure information.
#
# The original header in COD and relevant COD data follows:
#------------------------------------------------------------------------------
#$Date: 2013-05-09 13:53:25 +0000 (Thu, 09 May 2013) $
#$Revision: 86000 $
#$URL: file:///home/coder/svn-repositories/cod/cif/9/01/44/9014462.cif $
#------------------------------------------------------------------------------
data_9014462
loop_
_publ_author_name
'Schwarzenbach, D.'
'Birkedal, H.'
'Hostettler, M.'
'Fischer, P.'
_publ_section_title
;
 Neutron diffraction investigation of the temperature dependence of
 crystal structure and thermal motions of red HgI2
 Note: T = 30 K, powder neutron data
;
_journal_name_full               'Acta Crystallographica, Section B'
_journal_page_first              828
_journal_page_last               835
_journal_volume                  63
_journal_year                    2007
_chemical_compound_source        'synthetic, Fluka 83379'
_chemical_name_mineral           Coccinite
_database_code_amcsd             0019548
_exptl_crystal_density_diffrn    6.457
_[local]_cod_cif_authors_sg_H-M  'P 42/n m c'
_cod_database_code               9014462

#
# Data extracted using the FINDSYM utility follows
#
 
_audit_creation_method FINDSYM
 
_symmetry_space_group_name_H-M "P 42/n 21/m 2/c (origin choice 2)"
_symmetry_space_group_name_Hall '-P 4ac 2a'
_[local]_omdb_cod_original_Hall '-P 4ac 2a'
_symmetry_Int_Tables_number 137
 
_cell_length_a    4.35800
_cell_length_b    4.35800
_cell_length_c    12.30600
_cell_angle_alpha 90.00000
_cell_angle_beta  90.00000
_cell_angle_gamma 90.00000
 
loop_
_space_group_symop_id
_space_group_symop_operation_xyz
1 x,y,z
2 x+1/2,-y,-z
3 -x,y+1/2,-z
4 -x+1/2,-y+1/2,z
5 -y,-x,-z+1/2
6 -y+1/2,x,z+1/2
7 y,-x+1/2,z+1/2
8 y+1/2,x+1/2,-z+1/2
9 -x,-y,-z
10 -x+1/2,y,z
11 x,-y+1/2,z
12 x+1/2,y+1/2,-z
13 y,x,z+1/2
14 y+1/2,-x,-z+1/2
15 -y,x+1/2,-z+1/2
16 -y+1/2,-x+1/2,z+1/2
 
loop_
_atom_site_label
_atom_site_type_symbol
_atom_site_symmetry_multiplicity
_atom_site_Wyckoff_label
_atom_site_fract_x
_atom_site_fract_y
_atom_site_fract_z
_atom_site_occupancy
Hg1 Hg 2 a 0.75000 0.25000 0.75000 1.0
I1 I 4 d 0.25000 0.25000 0.10860 1.0
 

