# CIF file
# This is a cif file prepared for use with the openmaterialsdb.se
#
# The cif file was imported from the Crystallography Open Database (COD)
# http://www.crystallography.net/
# based on data placed in the public domain by the contributors.
#
# The original file in cod had 
#COD-MD5: 71eb22bbe1020fe32cdbe460d5623ab7
#
# It was then processed with the FINDSYM tool by
# Harold T. Stokes, Branton J. Campbell, Dorian M. Hatch
# Brigham Young University, Provo, Utah, USA
# which was used to update the structure information.
#
# The original header in COD and relevant COD data follows:
#------------------------------------------------------------------------------
#$Date: 2013-05-05 14:21:46 +0000 (Sun, 05 May 2013) $
#$Revision: 85285 $
#$URL: file:///home/coder/svn-repositories/cod/cif/9/01/15/9011594.cif $
#------------------------------------------------------------------------------
data_9011594
loop_
_publ_author_name
'Akella, J.'
'Xu, J.'
'Simth, G. S.'
_publ_section_title
;
 Static high pressure studies on Nd and Sc
 Locality: synthetic
 Sample: at P = 26 GPa
;
_journal_name_full               'Physica B and C'
_journal_page_first              285
_journal_page_last               288
_journal_volume                  139
_journal_year                    1986
_chemical_name_common            Scandium
_diffrn_ambient_pressure         2.6e+07
_exptl_crystal_density_diffrn    2.221
_cod_database_code               9011594

#
# Data extracted using the FINDSYM utility follows
#
 
_audit_creation_method FINDSYM
 
_symmetry_space_group_name_H-M "I 4/m 2/m 2/m"
_symmetry_space_group_name_Hall '-I 4 2'
_[local]_omdb_cod_original_Hall '-I 4 2'
_symmetry_Int_Tables_number 139
 
_cell_length_a    3.75800
_cell_length_b    3.75800
_cell_length_c    4.76100
_cell_angle_alpha 90.00000
_cell_angle_beta  90.00000
_cell_angle_gamma 90.00000
 
loop_
_space_group_symop_id
_space_group_symop_operation_xyz
1 x,y,z
2 x,-y,-z
3 -x,y,-z
4 -x,-y,z
5 -y,-x,-z
6 -y,x,z
7 y,-x,z
8 y,x,-z
9 -x,-y,-z
10 -x,y,z
11 x,-y,z
12 x,y,-z
13 y,x,z
14 y,-x,-z
15 -y,x,-z
16 -y,-x,z
17 x+1/2,y+1/2,z+1/2
18 x+1/2,-y+1/2,-z+1/2
19 -x+1/2,y+1/2,-z+1/2
20 -x+1/2,-y+1/2,z+1/2
21 -y+1/2,-x+1/2,-z+1/2
22 -y+1/2,x+1/2,z+1/2
23 y+1/2,-x+1/2,z+1/2
24 y+1/2,x+1/2,-z+1/2
25 -x+1/2,-y+1/2,-z+1/2
26 -x+1/2,y+1/2,z+1/2
27 x+1/2,-y+1/2,z+1/2
28 x+1/2,y+1/2,-z+1/2
29 y+1/2,x+1/2,z+1/2
30 y+1/2,-x+1/2,-z+1/2
31 -y+1/2,x+1/2,-z+1/2
32 -y+1/2,-x+1/2,z+1/2
 
loop_
_atom_site_label
_atom_site_type_symbol
_atom_site_symmetry_multiplicity
_atom_site_Wyckoff_label
_atom_site_fract_x
_atom_site_fract_y
_atom_site_fract_z
_atom_site_occupancy
Sc1 Sc 2 a 0.00000 0.00000 0.00000 1.0
 

