# CIF file
# This is a cif file prepared for use with the openmaterialsdb.se
#
# The cif file was imported from the Crystallography Open Database (COD)
# http://www.crystallography.net/
# based on data placed in the public domain by the contributors.
#
# The original file in cod had 
#COD-MD5: e085f47206e6104d0241a04f8e074efe
#
# It was then processed with the FINDSYM tool by
# Harold T. Stokes, Branton J. Campbell, Dorian M. Hatch
# Brigham Young University, Provo, Utah, USA
# which was used to update the structure information.
#
# The original header in COD and relevant COD data follows:
#------------------------------------------------------------------------------
#$Date: 2013-05-02 15:15:48 +0000 (Thu, 02 May 2013) $
#$Revision: 84004 $
#$URL: file:///home/coder/svn-repositories/cod/cif/4/00/17/4001736.cif $
#------------------------------------------------------------------------------
data_4001736
loop_
_publ_author_name
'Li, G.'
'Lin, J.'
'Wang, Y.'
'Li, L.'
'Liao, F.'
_publ_section_title
;
 Bismuth borates: One-dimensional borate chains and nonlinear optical
 properties
;
_journal_name_full               'Chemistry of Materials (1,1989-)'
_journal_page_first              4174
_journal_page_last               4180
_journal_volume                  17
_journal_year                    2005
_chemical_name_systematic        'Bi B2 O4 F'
_citation_journal_id_ASTM        CMATEX
_[local]_cod_data_source_file    boron_24.cif
_[local]_cod_data_source_block   B2Bi1F1O4
_[local]_cod_chemical_formula_sum_orig 'B2 Bi1 F1 O4'
_cod_database_code               4001736

#
# Data extracted using the FINDSYM utility follows
#
 
_audit_creation_method FINDSYM
 
_symmetry_space_group_name_H-M "P 32"
_symmetry_space_group_name_Hall 'P 32'
_[local]_omdb_cod_original_Hall 'P 32'
_symmetry_Int_Tables_number 145
 
_cell_length_a    6.71470
_cell_length_b    6.71470
_cell_length_c    6.46880
_cell_angle_alpha 90.00000
_cell_angle_beta  90.00000
_cell_angle_gamma 120.00000
 
loop_
_space_group_symop_id
_space_group_symop_operation_xyz
1 x,y,z
2 -y,x-y,z+2/3
3 -x+y,-x,z+1/3
 
loop_
_atom_site_label
_atom_site_type_symbol
_atom_site_symmetry_multiplicity
_atom_site_Wyckoff_label
_atom_site_fract_x
_atom_site_fract_y
_atom_site_fract_z
_atom_site_occupancy
B1 B 3 a 0.04100 0.71900 0.66500 1.0
B2 B 3 a 0.55100 0.23500 0.11700 1.0
O1 O 3 a -0.02300 0.53400 0.80800 1.0
O2 O 3 a 0.10400 -0.09800 0.79500 1.0
O3 O 3 a 0.57400 0.29500 0.89800 1.0
O4 O 3 a 0.85300 0.66500 0.53000 1.0
Bi1 Bi 3 a 0.70690 -0.06000 0.45240 1.0
F1 F 3 a 0.23200 0.76600 0.54400 1.0
 

