# CIF file
# This is a cif file prepared for use with the openmaterialsdb.se
#
# The cif file was imported from the Crystallography Open Database (COD)
# http://www.crystallography.net/
# based on data placed in the public domain by the contributors.
#
# The original file in cod had 
#COD-MD5: 9903125ca9e4265306a50869d56924a3
#
# It was then processed with the FINDSYM tool by
# Harold T. Stokes, Branton J. Campbell, Dorian M. Hatch
# Brigham Young University, Provo, Utah, USA
# which was used to update the structure information.
#
# The original header in COD and relevant COD data follows:
#------------------------------------------------------------------------------
#$Date: 2014-07-11 14:35:18 +0000 (Fri, 11 Jul 2014) $
#$Revision: 120071 $
#$URL: file:///home/coder/svn-repositories/cod/cif/1/51/00/1510007.cif $
#------------------------------------------------------------------------------
data_1510007
loop_
_publ_author_name
'Hayes, W.'
'Keen, D.A.'
'Hull, S.'
'Gardner, N.J.G.'
_publ_section_title
;
 The crystal structures of superionic Ag3 S I
;
_journal_name_full               'Journal of Physics: Condensed Matter'
_journal_page_first              2295
_journal_page_last               2316
_journal_volume                  13
_journal_year                    2001
_chemical_name_systematic        'Ag3 S I'
_citation_journal_id_ASTM        JCOMEL
_[local]_cod_data_source_file    silver3-x_38.cif
_[local]_cod_data_source_block   Ag3I1S1
_[local]_cod_cif_authors_sg_Hall 'R 3 (-y+z,x+z,-x+y+z)'
_[local]_cod_chemical_formula_sum_orig 'Ag3 I1 S1'
_cod_original_cell_volume        115.3079
_cod_database_code               1510007
_journal_paper_doi 10.1088/0953-8984/13/10/321

#
# Data extracted using the FINDSYM utility follows
#
 
_audit_creation_method FINDSYM
 
_symmetry_space_group_name_H-M "R 3 (hexagonal axes)"
_symmetry_space_group_name_Hall 'R 3'
_[local]_omdb_cod_original_Hall 'P 3*'
_symmetry_Int_Tables_number 146
 
_cell_length_a    6.88337
_cell_length_b    6.88337
_cell_length_c    8.43038
_cell_angle_alpha 90.00000
_cell_angle_beta  90.00000
_cell_angle_gamma 120.00000
 
loop_
_space_group_symop_id
_space_group_symop_operation_xyz
1 x,y,z
2 -y,x-y,z
3 -x+y,-x,z
4 x+1/3,y+2/3,z+2/3
5 -y+1/3,x-y+2/3,z+2/3
6 -x+y+1/3,-x+2/3,z+2/3
7 x+2/3,y+1/3,z+1/3
8 -y+2/3,x-y+1/3,z+1/3
9 -x+y+2/3,-x+1/3,z+1/3
 
loop_
_atom_site_label
_atom_site_type_symbol
_atom_site_symmetry_multiplicity
_atom_site_Wyckoff_label
_atom_site_fract_x
_atom_site_fract_y
_atom_site_fract_z
_atom_site_occupancy
Ag1 Ag 9 b 0.79483 0.71767 0.18767 1.0
S1 S 3 a 0.00000 0.00000 -0.03190 1.0
I1 I 3 a 0.00000 0.00000 0.50000 1.0
 

