# CIF file
# This is a cif file prepared for use with the openmaterialsdb.se
#
# The cif file was imported from the Crystallography Open Database (COD)
# http://www.crystallography.net/
# based on data placed in the public domain by the contributors.
#
# The original file in cod had 
#COD-MD5: 7535c148a5cac331caf6d2e13cd0a319
#
# It was then processed with the FINDSYM tool by
# Harold T. Stokes, Branton J. Campbell, Dorian M. Hatch
# Brigham Young University, Provo, Utah, USA
# which was used to update the structure information.
#
# The original header in COD and relevant COD data follows:
#------------------------------------------------------------------------------
#$Date: 2014-07-12 08:06:43 +0000 (Sat, 12 Jul 2014) $
#$Revision: 120115 $
#$URL: file:///home/coder/svn-repositories/cod/cif/9/01/31/9013138.cif $
#------------------------------------------------------------------------------
data_9013138
loop_
_publ_author_name
'Miyamoto, Y.'
_publ_section_title
;Structure and phase transformation of rhombohedral selenium composed of Se6
 molecules Locality: synthetic
;
_journal_name_full               'Japanese Journal of Applied Physics'
_journal_page_first              1813
_journal_page_last               1819
_journal_volume                  19
_journal_year                    1980
_chemical_name_common            Selenium
_exptl_crystal_density_diffrn    4.766
_[local]_cod_cif_authors_sg_H-M  'R -3'
_cod_database_code               9013138
_journal_paper_doi 10.1143/JJAP.19.1813

#
# Data extracted using the FINDSYM utility follows
#
 
_audit_creation_method FINDSYM
 
_symmetry_space_group_name_H-M "R -3 (hexagonal axes)"
_symmetry_space_group_name_Hall '-R 3'
_[local]_omdb_cod_original_Hall '-R 3'
_symmetry_Int_Tables_number 148
 
_cell_length_a    11.36200
_cell_length_b    11.36200
_cell_length_c    4.42900
_cell_angle_alpha 90.00000
_cell_angle_beta  90.00000
_cell_angle_gamma 120.00000
 
loop_
_space_group_symop_id
_space_group_symop_operation_xyz
1 x,y,z
2 -y,x-y,z
3 -x+y,-x,z
4 -x,-y,-z
5 y,-x+y,-z
6 x-y,x,-z
7 x+1/3,y+2/3,z+2/3
8 -y+1/3,x-y+2/3,z+2/3
9 -x+y+1/3,-x+2/3,z+2/3
10 -x+1/3,-y+2/3,-z+2/3
11 y+1/3,-x+y+2/3,-z+2/3
12 x-y+1/3,x+2/3,-z+2/3
13 x+2/3,y+1/3,z+1/3
14 -y+2/3,x-y+1/3,z+1/3
15 -x+y+2/3,-x+1/3,z+1/3
16 -x+2/3,-y+1/3,-z+1/3
17 y+2/3,-x+y+1/3,-z+1/3
18 x-y+2/3,x+1/3,-z+1/3
 
loop_
_atom_site_label
_atom_site_type_symbol
_atom_site_symmetry_multiplicity
_atom_site_Wyckoff_label
_atom_site_fract_x
_atom_site_fract_y
_atom_site_fract_z
_atom_site_occupancy
Se1 Se 18 f 0.79773 -0.04206 0.12045 1.0
 

