# CIF file
# This is a cif file prepared for use with the openmaterialsdb.se
#
# The cif file was imported from the Crystallography Open Database (COD)
# http://www.crystallography.net/
# based on data placed in the public domain by the contributors.
#
# The original file in cod had 
#COD-MD5: e835b4b81c81012cef26398a9f53c276
#
# It was then processed with the FINDSYM tool by
# Harold T. Stokes, Branton J. Campbell, Dorian M. Hatch
# Brigham Young University, Provo, Utah, USA
# which was used to update the structure information.
#
# The original header in COD and relevant COD data follows:
#------------------------------------------------------------------------------
#$Date: 2013-12-29 11:49:26 +0000 (Sun, 29 Dec 2013) $
#$Revision: 91935 $
#$URL: file:///home/coder/svn-repositories/cod/cif/4/00/09/4000973.cif $
#------------------------------------------------------------------------------
data_4000973
loop_
_publ_author_name
'Niewa, Rainer'
'Rau, Dieter'
'Wosylus, Aron'
'Meier, Katrin'
'Hanfland, Michael'
'Wessel, Michael'
'Dronskowski, Richard'
'Dzivenko, Dmytro A.'
'Riedel, Ralf'
'Schwarz, Ulrich'
_publ_section_title
;
 High-Pressure, High-Temperature Single-Crystal Growth, Ab initio
 Electronic Structure Calculations, and Equation of State of \e-Fe3N1+x
;
_journal_issue                   2
_journal_name_full               'Chemistry of Materials'
_journal_page_first              392
_journal_volume                  21
_journal_year                    2009
_computing_structure_refinement  'SHELXL-97 (Sheldrick, 1997)'
_diffrn_ambient_temperature      293(2)
_diffrn_measured_fraction_theta_full 1.000
_diffrn_measured_fraction_theta_max 1.000
_diffrn_radiation_monochromator  graphite
_diffrn_radiation_source         'fine-focus sealed tube'
_diffrn_radiation_type           AgK\a
_diffrn_radiation_wavelength     0.56083
_diffrn_reflns_av_R_equivalents  0.0107
_diffrn_reflns_av_sigmaI/netI    0.0161
_diffrn_reflns_limit_h_max       9
_diffrn_reflns_limit_h_min       -4
_diffrn_reflns_limit_k_max       8
_diffrn_reflns_limit_k_min       -8
_diffrn_reflns_limit_l_max       7
_diffrn_reflns_limit_l_min       -8
_diffrn_reflns_number            1088
_diffrn_reflns_theta_full        33.98
_diffrn_reflns_theta_max         33.98
_diffrn_reflns_theta_min         3.67
_exptl_absorpt_coefficient_mu    12.770
_exptl_absorpt_correction_type   none
_exptl_crystal_density_diffrn    7.154
_exptl_crystal_density_method    'not measured'
_exptl_crystal_F_000             171
_exptl_crystal_size_max          0.017
_exptl_crystal_size_mid          0.017
_exptl_crystal_size_min          0.017
_refine_diff_density_max         2.440
_refine_diff_density_min         -0.859
_refine_diff_density_rms         0.202
_refine_ls_abs_structure_details 'Flack H D (1983), Acta Cryst. A39, 876-881'
_refine_ls_abs_structure_Flack   0.1(2)
_refine_ls_extinction_coef       0.064(8)
_refine_ls_extinction_expression Fc^*^=kFc[1+0.001xFc^2^\l^3^/sin(2\q)]^-1/4^
_refine_ls_extinction_method     SHELXL
_refine_ls_goodness_of_fit_ref   1.129
_refine_ls_matrix_type           full
_refine_ls_number_parameters     21
_refine_ls_number_reflns         477
_refine_ls_number_restraints     0
_refine_ls_restrained_S_all      1.129
_refine_ls_R_factor_all          0.0339
_refine_ls_R_factor_gt           0.0189
_refine_ls_shift/su_max          0.005
_refine_ls_shift/su_mean         0.002
_refine_ls_structure_factor_coef Fsqd
_refine_ls_weighting_details
'calc w=1/[\s^2^(Fo^2^)+(0.0190P)^2^+0.1020P] where P=(Fo^2^+2Fc^2^)/3'
_refine_ls_weighting_scheme      calc
_refine_ls_wR_factor_gt          0.0453
_refine_ls_wR_factor_ref         0.0556
_reflns_number_gt                301
_reflns_number_total             477
_reflns_threshold_expression     >2sigma(I)
_[local]_cod_data_source_file    cm802721k_si_001.cif
_[local]_cod_data_source_block   p312_2_filt
_[local]_cod_cif_authors_sg_H-M  P312
_cod_database_code               4000973
_journal_paper_doi 10.1021/cm802721k

#
# Data extracted using the FINDSYM utility follows
#
 
_audit_creation_method FINDSYM
 
_symmetry_space_group_name_H-M "P 3 1 2"
_symmetry_space_group_name_Hall 'P 3 2'
_[local]_omdb_cod_original_Hall 'P 3 2'
_symmetry_Int_Tables_number 149
 
_cell_length_a    4.72410
_cell_length_b    4.72410
_cell_length_c    4.38620
_cell_angle_alpha 90.00000
_cell_angle_beta  90.00000
_cell_angle_gamma 120.00000
 
loop_
_space_group_symop_id
_space_group_symop_operation_xyz
1 x,y,z
2 -y,x-y,z
3 -x+y,-x,z
4 x,x-y,-z
5 -x+y,y,-z
6 -y,-x,-z
 
loop_
_atom_site_label
_atom_site_type_symbol
_atom_site_symmetry_multiplicity
_atom_site_Wyckoff_label
_atom_site_fract_x
_atom_site_fract_y
_atom_site_fract_z
_atom_site_occupancy
Fe1 Fe 6 l -0.00311 0.33197 0.25000 1.0
N1 N 1 a 0.00000 0.00000 0.00000 0.884
N2 N 1 d 0.33333 0.66667 0.50000 0.82
N3 N 1 f 0.66667 0.33333 0.50000 0.46
 

