# CIF file
# This is a cif file prepared for use with the openmaterialsdb.se
#
# The cif file was imported from the Crystallography Open Database (COD)
# http://www.crystallography.net/
# based on data placed in the public domain by the contributors.
#
# The original file in cod had 
#COD-MD5: f7cec49808743dca98540f2e097fc213
#
# It was then processed with the FINDSYM tool by
# Harold T. Stokes, Branton J. Campbell, Dorian M. Hatch
# Brigham Young University, Provo, Utah, USA
# which was used to update the structure information.
#
# The original header in COD and relevant COD data follows:
#------------------------------------------------------------------------------
#$Date: 2014-07-12 08:06:43 +0000 (Sat, 12 Jul 2014) $
#$Revision: 120115 $
#$URL: file:///home/coder/svn-repositories/cod/cif/9/01/10/9011089.cif $
#------------------------------------------------------------------------------
data_9011089
loop_
_publ_author_name
'Bosio, L.'
'Defrain, A.'
'Curien, H.'
'Rimsky, A.'
_publ_section_title
;
 Structure cristalline du gallium-beta
 Locality: synthetic
 Sample: at T = 248.15 K
 Note: structure known as beta phase
;
_journal_name_full               'Acta Crystallographica, Section B'
_journal_page_first              995
_journal_page_last               995
_journal_volume                  25
_journal_year                    1969
_chemical_name_common            Gallium
_diffrn_ambient_temperature      248.15
_exptl_crystal_density_diffrn    6.244
_cod_database_code               9011089
_journal_paper_doi 10.1107/S0567740869003360

#
# Data extracted using the FINDSYM utility follows
#
 
_audit_creation_method FINDSYM
 
_symmetry_space_group_name_H-M "C 1 2/c 1"
_symmetry_space_group_name_Hall '-C 2yc'
_[local]_omdb_cod_original_Hall '-C 2yc'
_symmetry_Int_Tables_number 15
 
_cell_length_a    2.76600
_cell_length_b    8.05300
_cell_length_c    3.33200
_cell_angle_alpha 90.00000
_cell_angle_beta  92.02000
_cell_angle_gamma 90.00000
 
loop_
_space_group_symop_id
_space_group_symop_operation_xyz
1 x,y,z
2 -x,y,-z+1/2
3 -x,-y,-z
4 x,-y,z+1/2
5 x+1/2,y+1/2,z
6 -x+1/2,y+1/2,-z+1/2
7 -x+1/2,-y+1/2,-z
8 x+1/2,-y+1/2,z+1/2
 
loop_
_atom_site_label
_atom_site_type_symbol
_atom_site_symmetry_multiplicity
_atom_site_Wyckoff_label
_atom_site_fract_x
_atom_site_fract_y
_atom_site_fract_z
_atom_site_occupancy
Ga1 Ga 4 e 0.00000 0.13100 0.25000 1.0
 

