# CIF file
# This is a cif file prepared for use with the openmaterialsdb.se
#
# The cif file was imported from the Crystallography Open Database (COD)
# http://www.crystallography.net/
# based on data placed in the public domain by the contributors.
#
# The original file in cod had 
#COD-MD5: 256a02ca6c65c04daaf7a126085fa291
#
# It was then processed with the FINDSYM tool by
# Harold T. Stokes, Branton J. Campbell, Dorian M. Hatch
# Brigham Young University, Provo, Utah, USA
# which was used to update the structure information.
#
# The original header in COD and relevant COD data follows:
#------------------------------------------------------------------------------
#$Date: 2012-02-28 12:14:52 +0000 (Tue, 28 Feb 2012) $
#$Revision: 35911 $
#$URL: file:///home/coder/svn-repositories/cod/cif/1/01/02/1010280.cif $
#------------------------------------------------------------------------------
data_1010280
_chemical_name_systematic          'Praseodymium oxide - A'
_publ_section_title
;
Die Kristallstruktur der A-Modifikation von den Sesquioxiden der
seltenen Erdmetalle. ( La~2~ O~3~, Ce~2~ O~3~, Pr~2~ O~3~, Nd~2~ O~3~
)
;
loop_
_publ_author_name                  'Zachariasen, W H'
_journal_name_full
;
Zeitschrift fuer Physikalische Chemie (Leipzig)
;
_journal_coden_ASTM                ZPCLAH
_journal_volume                    123
_journal_year                      1926
_journal_page_first                134
_journal_page_last                 150
_exptl_crystal_density_meas        6.88
_cod_database_code 1010280

#
# Data extracted using the FINDSYM utility follows
#
 
_audit_creation_method FINDSYM
 
_symmetry_space_group_name_H-M "P 3 2 1"
_symmetry_space_group_name_Hall 'P 3 2"'
_[local]_omdb_cod_original_Hall 'P 3 2"'
_symmetry_Int_Tables_number 150
 
_cell_length_a    3.85000
_cell_length_b    3.85000
_cell_length_c    6.00000
_cell_angle_alpha 90.00000
_cell_angle_beta  90.00000
_cell_angle_gamma 120.00000
 
loop_
_space_group_symop_id
_space_group_symop_operation_xyz
1 x,y,z
2 -y,x-y,z
3 -x+y,-x,z
4 x-y,-y,-z
5 y,x,-z
6 -x,-x+y,-z
 
loop_
_atom_site_label
_atom_site_type_symbol
_atom_site_symmetry_multiplicity
_atom_site_Wyckoff_label
_atom_site_fract_x
_atom_site_fract_y
_atom_site_fract_z
_atom_site_occupancy
Pr1 Pr 2 d 0.33333 0.66667 0.25000 1.0
O1 O 3 e 0.75000 0.00000 0.00000 1.0
 

