# CIF file
# This is a cif file prepared for use with the openmaterialsdb.se
#
# The cif file was imported from the Crystallography Open Database (COD)
# http://www.crystallography.net/
# based on data placed in the public domain by the contributors.
#
# The original file in cod had 
#COD-MD5: b8ceabdb98acab9fa6ffe6bac6ecba03
#
# It was then processed with the FINDSYM tool by
# Harold T. Stokes, Branton J. Campbell, Dorian M. Hatch
# Brigham Young University, Provo, Utah, USA
# which was used to update the structure information.
#
# The original header in COD and relevant COD data follows:
#------------------------------------------------------------------------------
#$Date: 2014-07-11 14:35:18 +0000 (Fri, 11 Jul 2014) $
#$Revision: 120071 $
#$URL: file:///home/coder/svn-repositories/cod/cif/1/00/81/1008168.cif $
#------------------------------------------------------------------------------
data_1008168
_chemical_name_systematic          'Silver hydrogenphosphate'
_[local]_cod_chemical_formula_sum_orig 'H Ag2 O4 P'
_publ_section_title                'Structure de l'Hydrogenophosphate D'Argent'
loop_
_publ_author_name
  'Tordjman, I'
  'Boudjada, A'
  'Guitel, J C'
  'Masse, R'
_journal_name_full                 'Acta Crystallographica B (24,1968-38,1982)'
_journal_coden_ASTM                ACBCAR
_journal_volume                    34
_journal_year                      1978
_journal_page_first                3723
_journal_page_last                 3725
_refine_ls_R_factor_all            0.052
_cod_database_code 1008168
_journal_paper_doi 10.1107/S0567740878011966

#
# Data extracted using the FINDSYM utility follows
#
 
_audit_creation_method FINDSYM
 
_symmetry_space_group_name_H-M "P 31 1 2"
_symmetry_space_group_name_Hall 'P 31 2c (0 0 1)'
_[local]_omdb_cod_original_Hall 'P 31 2c (0 0 1)'
_symmetry_Int_Tables_number 151
 
_cell_length_a    6.19000
_cell_length_b    6.19000
_cell_length_c    9.01500
_cell_angle_alpha 90.00000
_cell_angle_beta  90.00000
_cell_angle_gamma 120.00000
 
loop_
_space_group_symop_id
_space_group_symop_operation_xyz
1 x,y,z
2 -y,x-y,z+1/3
3 -x+y,-x,z+2/3
4 x,x-y,-z
5 -x+y,y,-z+1/3
6 -y,-x,-z+2/3
 
loop_
_atom_site_label
_atom_site_type_symbol
_atom_site_symmetry_multiplicity
_atom_site_Wyckoff_label
_atom_site_fract_x
_atom_site_fract_y
_atom_site_fract_z
_atom_site_occupancy
Ag1 Ag 3 a -0.08180 0.08180 0.33333 1.0
Ag2 Ag 3 a 0.20510 0.79490 0.33333 1.0
P1 P 3 a 0.50870 0.49130 0.33333 1.0
O1 O 6 c 0.26670 0.41230 0.41470 1.0
O2 O 6 c 0.46090 0.27500 0.22470 1.0
H1 H 3 b 0.62000 0.38000 0.83333 1.0
 

