# CIF file
# This is a cif file prepared for use with the openmaterialsdb.se
#
# The cif file was imported from the Crystallography Open Database (COD)
# http://www.crystallography.net/
# based on data placed in the public domain by the contributors.
#
# The original file in cod had 
#COD-MD5: 607d7637c636218392ace802ad9f0080
#
# It was then processed with the FINDSYM tool by
# Harold T. Stokes, Branton J. Campbell, Dorian M. Hatch
# Brigham Young University, Provo, Utah, USA
# which was used to update the structure information.
#
# The original header in COD and relevant COD data follows:
#------------------------------------------------------------------------------
#$Date: 2012-02-28 12:14:52 +0000 (Tue, 28 Feb 2012) $
#$Revision: 35911 $
#$URL: file:///home/coder/svn-repositories/cod/cif/1/01/05/1010575.cif $
#------------------------------------------------------------------------------
data_1010575
_chemical_name_systematic          'Chromium chloride'
_publ_section_title
;
The Structure of Chromium Trichloride Cr Cl~3~
;
loop_
_publ_author_name                  'Wooster, N'
_journal_name_full
;
Zeitschrift fuer Kristallographie, Kristallgeometrie, Kristallphysik,
Kristallchemie (-144,1977)
;
_journal_coden_ASTM                ZEKGAX
_journal_volume                    74
_journal_year                      1930
_journal_page_first                363
_journal_page_last                 374
_exptl_crystal_density_meas        2.87
_cod_database_code 1010575

#
# Data extracted using the FINDSYM utility follows
#
 
_audit_creation_method FINDSYM
 
_symmetry_space_group_name_H-M "P 32 1 2"
_symmetry_space_group_name_Hall 'P 32 2c (0 0 -1)'
_[local]_omdb_cod_original_Hall 'P 32 2c (0 0 -1)'
_symmetry_Int_Tables_number 153
 
_cell_length_a    6.01700
_cell_length_b    6.01700
_cell_length_c    17.30000
_cell_angle_alpha 90.00000
_cell_angle_beta  90.00000
_cell_angle_gamma 120.00000
 
loop_
_space_group_symop_id
_space_group_symop_operation_xyz
1 x,y,z
2 -y,x-y,z+2/3
3 -x+y,-x,z+1/3
4 x,x-y,-z
5 -x+y,y,-z+2/3
6 -y,-x,-z+1/3
 
loop_
_atom_site_label
_atom_site_type_symbol
_atom_site_symmetry_multiplicity
_atom_site_Wyckoff_label
_atom_site_fract_x
_atom_site_fract_y
_atom_site_fract_z
_atom_site_occupancy
Cr1 Cr 3 a 0.55555 0.44445 0.66667 1.0
Cr2 Cr 3 a 0.88890 0.11110 0.66667 1.0
Cl1 Cl 6 c 0.22220 0.77780 0.07310 1.0
Cl2 Cl 6 c 0.55560 0.44440 0.07310 1.0
Cl3 Cl 6 c 0.88890 0.11110 0.07310 1.0
 

