# CIF file
# This is a cif file prepared for use with the openmaterialsdb.se
#
# The cif file was imported from the Crystallography Open Database (COD)
# http://www.crystallography.net/
# based on data placed in the public domain by the contributors.
#
# The original file in cod had 
#COD-MD5: 2724b63381b491052c5ac1d676aa3608
#
# It was then processed with the FINDSYM tool by
# Harold T. Stokes, Branton J. Campbell, Dorian M. Hatch
# Brigham Young University, Provo, Utah, USA
# which was used to update the structure information.
#
# The original header in COD and relevant COD data follows:
#------------------------------------------------------------------------------
#$Date: 2013-05-05 14:21:46 +0000 (Sun, 05 May 2013) $
#$Revision: 85285 $
#$URL: file:///home/coder/svn-repositories/cod/cif/9/00/85/9008580.cif $
#------------------------------------------------------------------------------
data_9008580
loop_
_publ_author_name
'Wyckoff, R. W. G.'
_publ_section_title
;
 Second edition. Interscience Publishers, New York, New York
;
_journal_name_full               'Crystal Structures'
_journal_page_first              7
_journal_page_last               83
_journal_volume                  1
_journal_year                    1963
_chemical_name_common            Tellurium
_chemical_name_mineral           Tellurium
_exptl_crystal_density_diffrn    3.883
_cod_database_code               9008580

#
# Data extracted using the FINDSYM utility follows
#
 
_audit_creation_method FINDSYM
 
_symmetry_space_group_name_H-M "P 32 2 1"
_symmetry_space_group_name_Hall 'P 32 2"'
_[local]_omdb_cod_original_Hall 'P 32 2"'
_symmetry_Int_Tables_number 154
 
_cell_length_a    4.44693
_cell_length_b    4.44693
_cell_length_c    5.91492
_cell_angle_alpha 90.00000
_cell_angle_beta  90.00000
_cell_angle_gamma 120.00000
 
loop_
_space_group_symop_id
_space_group_symop_operation_xyz
1 x,y,z
2 -y,x-y,z+2/3
3 -x+y,-x,z+1/3
4 x-y,-y,-z+1/3
5 y,x,-z
6 -x,-x+y,-z+2/3
 
loop_
_atom_site_label
_atom_site_type_symbol
_atom_site_symmetry_multiplicity
_atom_site_Wyckoff_label
_atom_site_fract_x
_atom_site_fract_y
_atom_site_fract_z
_atom_site_occupancy
Se1 Se 3 b 0.26900 0.00000 0.16667 1.0
 

