# CIF file
# This is a cif file prepared for use with the openmaterialsdb.se
#
# The cif file was imported from the Crystallography Open Database (COD)
# http://www.crystallography.net/
# based on data placed in the public domain by the contributors.
#
# The original file in cod had 
#COD-MD5: b319c2165f0fa6598caa58a2547a55ac
#
# It was then processed with the FINDSYM tool by
# Harold T. Stokes, Branton J. Campbell, Dorian M. Hatch
# Brigham Young University, Provo, Utah, USA
# which was used to update the structure information.
#
# The original header in COD and relevant COD data follows:
#------------------------------------------------------------------------------
#$Date: 2012-02-28 12:14:52 +0000 (Tue, 28 Feb 2012) $
#$Revision: 35911 $
#$URL: file:///home/coder/svn-repositories/cod/cif/1/01/04/1010451.cif $
#------------------------------------------------------------------------------
data_1010451
_chemical_name_systematic          'Scandium fluoride'
_publ_section_title                'Die Kristallstruktur des Sc F~3~'
_[local]_cod_cif_authors_sg_H-M  'R 3 2 R'
loop_
_publ_author_name                  'Nowacki, W'
_journal_name_full
;
Zeitschrift fuer Kristallographie, Kristallgeometrie, Kristallphysik,
Kristallchemie (-144,1977)
;
_journal_coden_ASTM                ZEKGAX
_journal_volume                    101
_journal_year                      1939
_journal_page_first                273
_journal_page_last                 282
_cod_database_code 1010451

#
# Data extracted using the FINDSYM utility follows
#
 
_audit_creation_method FINDSYM
 
_symmetry_space_group_name_H-M "R 3 2 (hexagonal axes)"
_symmetry_space_group_name_Hall 'R 3 2"'
_[local]_omdb_cod_original_Hall 'P 3* 2'
_symmetry_Int_Tables_number 155
 
_cell_length_a    5.66683
_cell_length_b    5.66683
_cell_length_c    7.01779
_cell_angle_alpha 90.00000
_cell_angle_beta  90.00000
_cell_angle_gamma 120.00000
 
loop_
_space_group_symop_id
_space_group_symop_operation_xyz
1 x,y,z
2 -y,x-y,z
3 -x+y,-x,z
4 y,x,-z
5 -x,-x+y,-z
6 x-y,-y,-z
7 x+1/3,y+2/3,z+2/3
8 -y+1/3,x-y+2/3,z+2/3
9 -x+y+1/3,-x+2/3,z+2/3
10 y+1/3,x+2/3,-z+2/3
11 -x+1/3,-x+y+2/3,-z+2/3
12 x-y+1/3,-y+2/3,-z+2/3
13 x+2/3,y+1/3,z+1/3
14 -y+2/3,x-y+1/3,z+1/3
15 -x+y+2/3,-x+1/3,z+1/3
16 y+2/3,x+1/3,-z+1/3
17 -x+2/3,-x+y+1/3,-z+1/3
18 x-y+2/3,-y+1/3,-z+1/3
 
loop_
_atom_site_label
_atom_site_type_symbol
_atom_site_symmetry_multiplicity
_atom_site_Wyckoff_label
_atom_site_fract_x
_atom_site_fract_y
_atom_site_fract_z
_atom_site_occupancy
Sc1 Sc 3 a 0.00000 0.00000 0.00000 1.0
F1 F 9 e 0.77500 0.00000 0.50000 1.0
 

