# CIF file
# This is a cif file prepared for use with the openmaterialsdb.se
#
# The cif file was imported from the Crystallography Open Database (COD)
# http://www.crystallography.net/
# based on data placed in the public domain by the contributors.
#
# The original file in cod had 
#COD-MD5: 3cf832fc279729bdb58c0775c7c537ae
#
# It was then processed with the FINDSYM tool by
# Harold T. Stokes, Branton J. Campbell, Dorian M. Hatch
# Brigham Young University, Provo, Utah, USA
# which was used to update the structure information.
#
# The original header in COD and relevant COD data follows:
#------------------------------------------------------------------------------
#$Date: 2014-07-12 01:47:43 +0000 (Sat, 12 Jul 2014) $
#$Revision: 120105 $
#$URL: file:///home/coder/svn-repositories/cod/cif/4/32/11/4321120.cif $
#------------------------------------------------------------------------------
data_4321120
loop_
_publ_author_name
'Joonyeong Kim'
'Timothy Hughbanks'
_publ_section_title
;
 Synthesis and Structures of New Ternary Aluminum Chalcogenides: LiAlSe2,
 \a-LiAlTe2, and \b-LiAlTe2
;
_journal_name_full               'Inorganic Chemistry'
_journal_page_first              3092
_journal_page_last               3097
_journal_volume                  39
_journal_year                    2000
_computing_structure_refinement  'SHELXL-93 (Sheldrick, 1993)'
_computing_structure_solution    'SHELXS-86 (Sheldrick, 1990)'
_diffrn_ambient_temperature      293(2)
_diffrn_radiation_monochromator  graphite
_diffrn_radiation_source         'fine-focus sealed tube'
_diffrn_radiation_type           MoK\a
_diffrn_radiation_wavelength     0.71073
_diffrn_reflns_av_R_equivalents  0.0339
_diffrn_reflns_av_sigmaI/netI    0.0190
_diffrn_reflns_limit_h_max       6
_diffrn_reflns_limit_h_min       0
_diffrn_reflns_limit_k_max       5
_diffrn_reflns_limit_k_min       -6
_diffrn_reflns_limit_l_max       10
_diffrn_reflns_limit_l_min       -10
_diffrn_reflns_number            817
_diffrn_reflns_theta_max         30.05
_diffrn_reflns_theta_min         2.87
_exptl_absorpt_coefficient_mu    11.793
_exptl_crystal_density_diffrn    3.891
_exptl_crystal_F_000             120
_refine_diff_density_max         1.384
_refine_diff_density_min         -0.793
_refine_diff_density_rms         0.166
_refine_ls_abs_structure_details 'Flack H D (1983), Acta Cryst. A39, 876-881'
_refine_ls_abs_structure_Flack   0.00(999)
_refine_ls_extinction_coef       0.0280(34)
_refine_ls_extinction_expression Fc^*^=kFc[1+0.001xFc^2^\l^3^/sin(2\q)]^-1/4^
_refine_ls_extinction_method     SHELXL
_refine_ls_goodness_of_fit_all   1.173
_refine_ls_goodness_of_fit_obs   1.175
_refine_ls_matrix_type           full
_refine_ls_number_parameters     13
_refine_ls_number_reflns         169
_refine_ls_number_restraints     0
_refine_ls_restrained_S_all      1.269
_refine_ls_restrained_S_obs      1.175
_refine_ls_R_factor_all          0.0262
_refine_ls_R_factor_obs          0.0199
_refine_ls_shift/esd_max         0.000
_refine_ls_shift/esd_mean        0.000
_refine_ls_structure_factor_coef Fsqd
_refine_ls_weighting_scheme
'calc w=1/[\s^2^(Fo^2^)+(0.0000P)^2^+0.5387P] where P=(Fo^2^+2Fc^2^)/3'
_refine_ls_wR_factor_all         0.0433
_refine_ls_wR_factor_obs         0.0378
_reflns_number_observed          153
_reflns_number_total             170
_reflns_observed_criterion       >2sigma(I)
_[local]_cod_data_source_file    ic000210c_3.cif
_[local]_cod_data_source_block   beta-lialte2
_cod_database_code               4321120
_journal_paper_doi 10.1021/ic000210c

#
# Data extracted using the FINDSYM utility follows
#
 
_audit_creation_method FINDSYM
 
_symmetry_space_group_name_H-M "P 3 m 1"
_symmetry_space_group_name_Hall 'P 3 -2"'
_[local]_omdb_cod_original_Hall 'P 3 -2"'
_symmetry_Int_Tables_number 156
 
_cell_length_a    4.48100
_cell_length_b    4.48100
_cell_length_c    7.09600
_cell_angle_alpha 90.00000
_cell_angle_beta  90.00000
_cell_angle_gamma 120.00000
 
loop_
_space_group_symop_id
_space_group_symop_operation_xyz
1 x,y,z
2 -y,x-y,z
3 -x+y,-x,z
4 -x+y,y,z
5 -y,-x,z
6 x,x-y,z
 
loop_
_atom_site_label
_atom_site_type_symbol
_atom_site_symmetry_multiplicity
_atom_site_Wyckoff_label
_atom_site_fract_x
_atom_site_fract_y
_atom_site_fract_z
_atom_site_occupancy
Te1 Te 1 b 0.33333 0.66667 0.61730 1.0
Te2 Te 1 c 0.66667 0.33333 0.12750 1.0
Al1 Al 1 b 0.33333 0.66667 0.00000 1.0
Li1 Li 1 a 0.00000 0.00000 0.40040 1.0
 

