# CIF file
# This is a cif file prepared for use with the openmaterialsdb.se
#
# The cif file was imported from the Crystallography Open Database (COD)
# http://www.crystallography.net/
# based on data placed in the public domain by the contributors.
#
# The original file in cod had 
#COD-MD5: ac16b2a9a7e0c74467a2738ae9e47454
#
# It was then processed with the FINDSYM tool by
# Harold T. Stokes, Branton J. Campbell, Dorian M. Hatch
# Brigham Young University, Provo, Utah, USA
# which was used to update the structure information.
#
# The original header in COD and relevant COD data follows:
#------------------------------------------------------------------------------
#$Date: 2014-07-11 16:04:56 +0000 (Fri, 11 Jul 2014) $
#$Revision: 120072 $
#$URL: file:///home/coder/svn-repositories/cod/cif/2/00/23/2002396.cif $
#------------------------------------------------------------------------------
data_2002396
_publ_section_title
;
Synthese und Kristallstruktur von Mn4 Nb2 O9 und Mn2 Zn2 Nb2 O9
;
loop_
_publ_author_name
  'Rohweder, U'
  'Mueller-Buschbaum, Hk'
_journal_name_full                 'Journal of the Less-Common Metals'
_journal_volume                    138
_journal_year                      1988
_journal_page_first                79
_journal_page_last                 86
_refine_ls_R_factor_all            0.053
_cod_database_code 2002396
_journal_paper_doi 10.1016/0022-5088(88)90237-8

#
# Data extracted using the FINDSYM utility follows
#
 
_audit_creation_method FINDSYM
 
_symmetry_space_group_name_H-M "P 3 c 1"
_symmetry_space_group_name_Hall 'P 3 -2"c'
_[local]_omdb_cod_original_Hall 'P 3 -2"c'
_symmetry_Int_Tables_number 158
 
_cell_length_a    5.26170
_cell_length_b    5.26170
_cell_length_c    14.34220
_cell_angle_alpha 90.00000
_cell_angle_beta  90.00000
_cell_angle_gamma 120.00000
 
loop_
_space_group_symop_id
_space_group_symop_operation_xyz
1 x,y,z
2 -y,x-y,z
3 -x+y,-x,z
4 -x+y,y,z+1/2
5 -y,-x,z+1/2
6 x,x-y,z+1/2
 
loop_
_atom_site_label
_atom_site_type_symbol
_atom_site_symmetry_multiplicity
_atom_site_Wyckoff_label
_atom_site_fract_x
_atom_site_fract_y
_atom_site_fract_z
_atom_site_occupancy
Nb1 Nb 2 a 0.00000 0.00000 0.14110 1.0
Nb2 Nb 2 a 0.00000 0.00000 0.35910 1.0
Zn1 Zn 2 b 0.33333 0.66667 0.30350 1.0
Zn2 Zn 2 c 0.66667 0.33333 0.20640 1.0
Mn1 Mn 2 b 0.33333 0.66667 0.01750 1.0
Mn2 Mn 2 c 0.66667 0.33333 0.48760 1.0
O1 O 6 d 0.27500 -0.00100 0.25900 1.0
O2 O 6 d 0.30800 0.33400 0.41300 1.0
O3 O 6 d 0.33700 0.31100 0.08800 1.0
 

