# CIF file
# This is a cif file prepared for use with the openmaterialsdb.se
#
# The cif file was imported from the Crystallography Open Database (COD)
# http://www.crystallography.net/
# based on data placed in the public domain by the contributors.
#
# The original file in cod had 
#COD-MD5: db2dcf9d1e35d1145572ec86ebe00b43
#
# It was then processed with the FINDSYM tool by
# Harold T. Stokes, Branton J. Campbell, Dorian M. Hatch
# Brigham Young University, Provo, Utah, USA
# which was used to update the structure information.
#
# The original header in COD and relevant COD data follows:
#------------------------------------------------------------------------------
#$Date: 2013-04-29 18:40:51 +0000 (Mon, 29 Apr 2013) $
#$Revision: 82528 $
#$URL: file:///home/coder/svn-repositories/cod/cif/1/50/95/1509559.cif $
#------------------------------------------------------------------------------
data_1509559
loop_
_publ_author_name
'von Krziwanik, F.'
'Zabel, M.'
'Marx, R.'
'Panzer, B.'
'Rau, F.'
'Range, K.J.'
_publ_section_title
;
 Ein neuer dreidimensionaler Tellur-Bauverband: Hochdrucksynthese und
 Kristallstruktur von Ag Te3
;
_journal_name_full               'Angewandte Chemie (German Edition)'
_journal_page_first              717
_journal_page_last               718
_journal_volume                  94
_journal_year                    1982
_chemical_name_systematic        'Ag Te3'
_citation_journal_id_ASTM        ANCEAD
_[local]_cod_data_source_file    silver1-2_556.cif
_[local]_cod_data_source_block   Ag1Te3
_[local]_cod_chemical_formula_sum_orig 'Ag1 Te3'
_cod_original_cell_volume        341.2213
_cod_database_code               1509559

#
# Data extracted using the FINDSYM utility follows
#
 
_audit_creation_method FINDSYM
 
_symmetry_space_group_name_H-M "R 3 m (hexagonal axes)"
_symmetry_space_group_name_Hall 'R 3 -2"'
_[local]_omdb_cod_original_Hall 'R 3 -2"'
_symmetry_Int_Tables_number 160
 
_cell_length_a    8.64500
_cell_length_b    8.64500
_cell_length_c    5.27200
_cell_angle_alpha 90.00000
_cell_angle_beta  90.00000
_cell_angle_gamma 120.00000
 
loop_
_space_group_symop_id
_space_group_symop_operation_xyz
1 x,y,z
2 -y,x-y,z
3 -x+y,-x,z
4 -y,-x,z
5 x,x-y,z
6 -x+y,y,z
7 x+1/3,y+2/3,z+2/3
8 -y+1/3,x-y+2/3,z+2/3
9 -x+y+1/3,-x+2/3,z+2/3
10 -y+1/3,-x+2/3,z+2/3
11 x+1/3,x-y+2/3,z+2/3
12 -x+y+1/3,y+2/3,z+2/3
13 x+2/3,y+1/3,z+1/3
14 -y+2/3,x-y+1/3,z+1/3
15 -x+y+2/3,-x+1/3,z+1/3
16 -y+2/3,-x+1/3,z+1/3
17 x+2/3,x-y+1/3,z+1/3
18 -x+y+2/3,y+1/3,z+1/3
 
loop_
_atom_site_label
_atom_site_type_symbol
_atom_site_symmetry_multiplicity
_atom_site_Wyckoff_label
_atom_site_fract_x
_atom_site_fract_y
_atom_site_fract_z
_atom_site_occupancy
Ag1 Ag 3 a 0.00000 0.00000 0.00000 1.0
Te1 Te 9 b 0.50053 0.49947 0.00797 1.0
 

