# CIF file
# This is a cif file prepared for use with the openmaterialsdb.se
#
# The cif file was imported from the Crystallography Open Database (COD)
# http://www.crystallography.net/
# based on data placed in the public domain by the contributors.
#
# The original file in cod had 
#COD-MD5: c5920bb7047db6921873083d315c1d9a
#
# It was then processed with the FINDSYM tool by
# Harold T. Stokes, Branton J. Campbell, Dorian M. Hatch
# Brigham Young University, Provo, Utah, USA
# which was used to update the structure information.
#
# The original header in COD and relevant COD data follows:
#------------------------------------------------------------------------------
#$Date: 2013-05-05 14:21:46 +0000 (Sun, 05 May 2013) $
#$Revision: 85285 $
#$URL: file:///home/coder/svn-repositories/cod/cif/9/01/34/9013407.cif $
#------------------------------------------------------------------------------
data_9013407
loop_
_publ_author_name
'Seidel, P.'
'Hoffmann, W.'
_publ_section_title
;
 Verfeinerung der kristallstruktur von NaNbO3
 N. Bestimmung der absoluten konfiguration und des zwillingsgesetzes
 Note T = 84 K
;
_journal_name_full               'Zeitschrift fur Kristallographie'
_journal_page_first              444
_journal_page_last               459
_journal_volume                  143
_journal_year                    1976
_chemical_name_mineral           Lueshite
_diffrn_ambient_temperature      84
_exptl_crystal_density_diffrn    4.564
_[local]_cod_cif_authors_sg_H-M  'R 3 c'
_cod_database_code               9013407

#
# Data extracted using the FINDSYM utility follows
#
 
_audit_creation_method FINDSYM
 
_symmetry_space_group_name_H-M "R 3 c (hexagonal axes)"
_symmetry_space_group_name_Hall 'R 3 -2"c'
_[local]_omdb_cod_original_Hall 'P 3* -2n'
_symmetry_Int_Tables_number 161
 
_cell_length_a    5.48566
_cell_length_b    5.48566
_cell_length_c    13.73013
_cell_angle_alpha 90.00000
_cell_angle_beta  90.00000
_cell_angle_gamma 120.00000
 
loop_
_space_group_symop_id
_space_group_symop_operation_xyz
1 x,y,z
2 -y,x-y,z
3 -x+y,-x,z
4 -y,-x,z+1/2
5 x,x-y,z+1/2
6 -x+y,y,z+1/2
7 x+1/3,y+2/3,z+2/3
8 -y+1/3,x-y+2/3,z+2/3
9 -x+y+1/3,-x+2/3,z+2/3
10 -y+1/3,-x+2/3,z+1/6
11 x+1/3,x-y+2/3,z+1/6
12 -x+y+1/3,y+2/3,z+1/6
13 x+2/3,y+1/3,z+1/3
14 -y+2/3,x-y+1/3,z+1/3
15 -x+y+2/3,-x+1/3,z+1/3
16 -y+2/3,-x+1/3,z+5/6
17 x+2/3,x-y+1/3,z+5/6
18 -x+y+2/3,y+1/3,z+5/6
 
loop_
_atom_site_label
_atom_site_type_symbol
_atom_site_symmetry_multiplicity
_atom_site_Wyckoff_label
_atom_site_fract_x
_atom_site_fract_y
_atom_site_fract_z
_atom_site_occupancy
Na1 Na 6 a 0.00000 0.00000 0.00000 1.0
Nb1 Nb 6 a 0.00000 0.00000 0.25800 1.0
O1 O 18 b 0.00133 0.43467 0.02567 1.0
 

