# CIF file
# This is a cif file prepared for use with the openmaterialsdb.se
#
# The cif file was imported from the Crystallography Open Database (COD)
# http://www.crystallography.net/
# based on data placed in the public domain by the contributors.
#
# The original file in cod had 
#COD-MD5: 9459f1778c6e8b9cc945a19695e9f8a5
#
# It was then processed with the FINDSYM tool by
# Harold T. Stokes, Branton J. Campbell, Dorian M. Hatch
# Brigham Young University, Provo, Utah, USA
# which was used to update the structure information.
#
# The original header in COD and relevant COD data follows:
#------------------------------------------------------------------------------
#$Date: 2013-04-30 22:05:04 +0000 (Tue, 30 Apr 2013) $
#$Revision: 83019 $
#$URL: file:///home/coder/svn-repositories/cod/cif/7/10/92/7109278.cif $
#------------------------------------------------------------------------------
data_7109278
loop_
_publ_author_name
'Beesk, W.'
'Schwarzmann, E.'
'Rumpel, H.'
'Jones, P.G.'
'Sheldrick, G.M.'
_publ_section_title
;
 X-Ray Crystal Structure of Ag6 O2
;
_journal_name_full
;
Journal of the Chemical Society. Chemical Communications (1972-)
;
_journal_page_first              664
_journal_page_last               665
_journal_volume                  1981
_journal_year                    1981
_chemical_name_systematic        'Ag6 O2'
_citation_journal_id_ASTM        JCCCAT
_[local]_cod_data_source_file    silver3-x_241.cif
_[local]_cod_data_source_block   Ag6O2
_cod_original_cell_volume        121.2607
_cod_database_code               7109278

#
# Data extracted using the FINDSYM utility follows
#
 
_audit_creation_method FINDSYM
 
_symmetry_space_group_name_H-M "P -3 1 2/m"
_symmetry_space_group_name_Hall '-P 3 2'
_[local]_omdb_cod_original_Hall '-P 3 2'
_symmetry_Int_Tables_number 162
 
_cell_length_a    5.31800
_cell_length_b    5.31800
_cell_length_c    4.95100
_cell_angle_alpha 90.00000
_cell_angle_beta  90.00000
_cell_angle_gamma 120.00000
 
loop_
_space_group_symop_id
_space_group_symop_operation_xyz
1 x,y,z
2 -y,x-y,z
3 -x+y,-x,z
4 x,x-y,-z
5 -x+y,y,-z
6 -y,-x,-z
7 -x,-y,-z
8 y,-x+y,-z
9 x-y,x,-z
10 -x,-x+y,z
11 x-y,-y,z
12 y,x,z
 
loop_
_atom_site_label
_atom_site_type_symbol
_atom_site_symmetry_multiplicity
_atom_site_Wyckoff_label
_atom_site_fract_x
_atom_site_fract_y
_atom_site_fract_z
_atom_site_occupancy
O1 O 2 d 0.33333 0.66667 0.50000 1.0
Ag1 Ag 6 k 0.31080 0.00000 0.22280 1.0
 

