# CIF file
# This is a cif file prepared for use with the openmaterialsdb.se
#
# The cif file was imported from the Crystallography Open Database (COD)
# http://www.crystallography.net/
# based on data placed in the public domain by the contributors.
#
# The original file in cod had 
#COD-MD5: 42d348ce1ac9b801043cc532be3f7b54
#
# It was then processed with the FINDSYM tool by
# Harold T. Stokes, Branton J. Campbell, Dorian M. Hatch
# Brigham Young University, Provo, Utah, USA
# which was used to update the structure information.
#
# The original header in COD and relevant COD data follows:
#------------------------------------------------------------------------------
#$Date: 2014-07-11 14:35:18 +0000 (Fri, 11 Jul 2014) $
#$Revision: 120071 $
#$URL: file:///home/coder/svn-repositories/cod/cif/1/50/84/1508414.cif $
#------------------------------------------------------------------------------
data_1508414
loop_
_publ_author_name
'Beran, Martin'
'Meyer, Gerd'
_publ_section_title
;
 Crystal Structure of Na3MoCl6
;
_journal_issue                   3
_journal_name_full               Crystals
_journal_page_first              99
_journal_page_last               103
_journal_volume                  1
_journal_year                    2012
_chemical_name_common            Tri-natrium-molybdo(III)hexa-chlorid
_computing_cell_refinement       X-Area
_computing_data_collection       X-Red
_computing_data_reduction        X-Red
_computing_molecular_graphics    Diamond
_computing_publication_material  Diamond
_computing_structure_refinement  'SHELXL-97 (Sheldrick, 1997)'
_computing_structure_solution    'SHELXS-97 (Sheldrick, 1997)'
_diffrn_ambient_temperature      293(2)
_diffrn_measured_fraction_theta_full 1.000
_diffrn_measured_fraction_theta_max 1.000
_diffrn_measurement_device_type  crystal
_diffrn_measurement_method       \q/2\q
_diffrn_radiation_monochromator  graphite
_diffrn_radiation_source         'fine-focus sealed tube'
_diffrn_radiation_type           MoK\a
_diffrn_radiation_wavelength     0.71073
_diffrn_reflns_av_R_equivalents  0.0543
_diffrn_reflns_av_sigmaI/netI    0.0224
_diffrn_reflns_limit_h_max       9
_diffrn_reflns_limit_h_min       -9
_diffrn_reflns_limit_k_max       9
_diffrn_reflns_limit_k_min       -9
_diffrn_reflns_limit_l_max       16
_diffrn_reflns_limit_l_min       -15
_diffrn_reflns_number            4490
_diffrn_reflns_theta_full        28.07
_diffrn_reflns_theta_max         28.07
_diffrn_reflns_theta_min         3.33
_diffrn_standards_interval_count 100
_diffrn_standards_interval_time  6
_diffrn_standards_number         318
_exptl_absorpt_coefficient_mu    2.960
_exptl_absorpt_correction_T_max  0.1363
_exptl_absorpt_correction_T_min  0.0872
_exptl_absorpt_correction_type   numerical
_exptl_absorpt_process_details   numerical
_exptl_crystal_colour            red
_exptl_crystal_density_diffrn    2.503
_exptl_crystal_density_method    'not measured'
_exptl_crystal_description       polyhedral
_exptl_crystal_F_000             354
_exptl_crystal_size_max          0.5
_exptl_crystal_size_mid          0.2
_exptl_crystal_size_min          0.1
_refine_diff_density_max         0.376
_refine_diff_density_min         -0.520
_refine_diff_density_rms         0.097
_refine_ls_extinction_method     none
_refine_ls_goodness_of_fit_ref   1.062
_refine_ls_hydrogen_treatment    none
_refine_ls_matrix_type           full
_refine_ls_number_parameters     17
_refine_ls_number_reflns         416
_refine_ls_number_restraints     0
_refine_ls_restrained_S_all      1.062
_refine_ls_R_factor_all          0.0350
_refine_ls_R_factor_gt           0.0238
_refine_ls_shift/su_max          0.000
_refine_ls_shift/su_mean         0.000
_refine_ls_structure_factor_coef Fsqd
_refine_ls_weighting_details
'calc w=1/[\s^2^(Fo^2^)+(0.0413P)^2^+0.0991P] where P=(Fo^2^+2Fc^2^)/3'
_refine_ls_weighting_scheme      calc
_refine_ls_wR_factor_gt          0.0671
_refine_ls_wR_factor_ref         0.0706
_reflns_number_gt                318
_reflns_number_total             416
_reflns_threshold_expression     >2sigma(I)
_[local]_cod_data_source_file    Na3MoCl6crystals-01-00099-s001_DC159.cif
_[local]_cod_data_source_block   mba252_chateigner_1508414
_[local]_cod_cif_authors_sg_H-M  P-31c
_cod_database_code               1508414
_journal_paper_doi 10.3390/cryst1030099

#
# Data extracted using the FINDSYM utility follows
#
 
_audit_creation_method FINDSYM
 
_symmetry_space_group_name_H-M "P -3 1 2/c"
_symmetry_space_group_name_Hall '-P 3 2c'
_[local]_omdb_cod_original_Hall '-P 3 2c'
_symmetry_Int_Tables_number 163
 
_cell_length_a    6.87120
_cell_length_b    6.87120
_cell_length_c    12.25310
_cell_angle_alpha 90.00000
_cell_angle_beta  90.00000
_cell_angle_gamma 120.00000
 
loop_
_space_group_symop_id
_space_group_symop_operation_xyz
1 x,y,z
2 -y,x-y,z
3 -x+y,-x,z
4 x,x-y,-z+1/2
5 -x+y,y,-z+1/2
6 -y,-x,-z+1/2
7 -x,-y,-z
8 y,-x+y,-z
9 x-y,x,-z
10 -x,-x+y,z+1/2
11 x-y,-y,z+1/2
12 y,x,z+1/2
 
loop_
_atom_site_label
_atom_site_type_symbol
_atom_site_symmetry_multiplicity
_atom_site_Wyckoff_label
_atom_site_fract_x
_atom_site_fract_y
_atom_site_fract_z
_atom_site_occupancy
Mo1 Mo 2 c 0.33333 0.66667 0.25000 1.0
Cl1 Cl 12 i 0.67906 0.62744 0.86810 1.0
Na1 Na 2 a 0.00000 0.00000 0.25000 1.0
Na2 Na 4 f 0.33333 0.66667 -0.04260 1.0
 

