# CIF file
# This is a cif file prepared for use with the openmaterialsdb.se
#
# The cif file was imported from the Crystallography Open Database (COD)
# http://www.crystallography.net/
# based on data placed in the public domain by the contributors.
#
# The original file in cod had 
#COD-MD5: c19863856b99986d4a5f0f9e95c7cab2
#
# It was then processed with the FINDSYM tool by
# Harold T. Stokes, Branton J. Campbell, Dorian M. Hatch
# Brigham Young University, Provo, Utah, USA
# which was used to update the structure information.
#
# The original header in COD and relevant COD data follows:
data_5910026
_journal_name_full               'The second edition of Structure of Crystals'
_journal_page_first              232
_journal_page_last               239
_chemical_name_systematic        'Zirconium diselenide'
_[local]_cod_chemical_formula_sum_orig 'Zr Se2'
_[local]_cod_cif_authors_sg_H-M  'P a -3 m 1'
_cod_database_code               5910026

#
# Data extracted using the FINDSYM utility follows
#
 
_audit_creation_method FINDSYM
 
_symmetry_space_group_name_H-M "P -3 2/m 1"
_symmetry_space_group_name_Hall '-P 3 2"'
_[local]_omdb_cod_original_Hall '-P 3 2"'
_symmetry_Int_Tables_number 164
 
_cell_length_a    3.63000
_cell_length_b    3.63000
_cell_length_c    5.85000
_cell_angle_alpha 90.00000
_cell_angle_beta  90.00000
_cell_angle_gamma 120.00000
 
loop_
_space_group_symop_id
_space_group_symop_operation_xyz
1 x,y,z
2 -y,x-y,z
3 -x+y,-x,z
4 x-y,-y,-z
5 y,x,-z
6 -x,-x+y,-z
7 -x,-y,-z
8 y,-x+y,-z
9 x-y,x,-z
10 -x+y,y,z
11 -y,-x,z
12 x,x-y,z
 
loop_
_atom_site_label
_atom_site_type_symbol
_atom_site_symmetry_multiplicity
_atom_site_Wyckoff_label
_atom_site_fract_x
_atom_site_fract_y
_atom_site_fract_z
_atom_site_occupancy
Zr1 Zr 1 a 0.00000 0.00000 0.00000 1.0
Se1 Se 2 d 0.33333 0.66667 0.24920 1.0
 

