# CIF file
# This is a cif file prepared for use with the openmaterialsdb.se
#
# The cif file was imported from the Crystallography Open Database (COD)
# http://www.crystallography.net/
# based on data placed in the public domain by the contributors.
#
# The original file in cod had 
#COD-MD5: e58775c2665db24f287ab151fa893e3d
#
# It was then processed with the FINDSYM tool by
# Harold T. Stokes, Branton J. Campbell, Dorian M. Hatch
# Brigham Young University, Provo, Utah, USA
# which was used to update the structure information.
#
# The original header in COD and relevant COD data follows:
#------------------------------------------------------------------------------
#$Date: 2012-02-24 18:13:23 +0100 (Fri, 24 Feb 2012) $
#$Revision: 34330 $
#$URL: svn://www.crystallography.net/cod/cif/4/00/01/4000104.cif $
#------------------------------------------------------------------------------
data_4000104
_journal_name_full 'Chemistry of Materials'
_journal_year    2001
_publ_section_title
;
 Open-Framework Borophosphates: (NH4)0.4Fe1.05(H2O)2[BP2O8]*0.6H2O and
 NH4Fe[BP2O8(OH)]
;
loop_
 _publ_author_name
     'Huang, Ya-Xi'
     'Sch\"afer, Gerd'
     'Carrillo-Carbrera, Wilder'
     'Cardoso, Raul'
     'Schnelle, Walter'
     'Zhao, Jing-Tai'
     'Kniep, R\"udiger'
_[local]_cod_chemical_formula_sum_orig 'H0 B Fe1.05 N0.41 O10.59 P2'
_exptl_crystal_description        'hexagonal bipyramide'
_exptl_crystal_colour             'black'
_exptl_crystal_size_max           '0.2'
_exptl_crystal_size_mid           '0.2'
_exptl_crystal_size_min           '0.2'
_exptl_crystal_density_meas       ?
_exptl_crystal_density_diffrn     2.499
_exptl_crystal_density_method     'not measured'
_exptl_crystal_F_000              899
_exptl_absorpt_coefficient_mu     1.229
_diffrn_ambient_temperature       293(2)
_diffrn_radiation_wavelength      0.56087
_diffrn_radiation_type            AgK\a
_diffrn_radiation_source          'fine-focus sealed tube'
_diffrn_radiation_monochromator   graphite
_diffrn_reflns_number             16047
_diffrn_reflns_av_R_equivalents   0.0335
_diffrn_reflns_av_sigmaI/netI     0.0227
_diffrn_reflns_limit_h_min        -13
_diffrn_reflns_limit_h_max        13
_diffrn_reflns_limit_k_min        -13
_diffrn_reflns_limit_k_max        13
_diffrn_reflns_limit_l_min        -22
_diffrn_reflns_limit_l_max        22
_diffrn_reflns_theta_min          1.96
_diffrn_reflns_theta_max          23.99
_reflns_number_total              2589
_reflns_number_gt                 2348
_reflns_threshold_expression      >2sigma(I)
_refine_ls_structure_factor_coef  Fsqd
_refine_ls_matrix_type            full
_refine_ls_weighting_scheme       calc
_refine_ls_hydrogen_treatment     mixed
_refine_ls_extinction_method      none
_refine_ls_extinction_coef        ?
_refine_ls_abs_structure_details
 'Flack H D (1983), Acta Cryst. A39, 876-881'
_refine_ls_abs_structure_Flack    -0.01(2)
_refine_ls_number_reflns          2589
_refine_ls_number_parameters      126
_refine_ls_number_restraints      1
_refine_ls_R_factor_all           0.0321
_refine_ls_R_factor_gt            0.0261
_refine_ls_wR_factor_ref          0.0641
_refine_ls_wR_factor_gt           0.0620
_refine_ls_goodness_of_fit_ref    1.066
_refine_ls_restrained_S_all       1.066
_refine_ls_shift/su_max           0.022
_refine_ls_shift/su_mean          0.002
_cod_database_code 4000104

#
# Data extracted using the FINDSYM utility follows
#
 
_audit_creation_method FINDSYM
 
_symmetry_space_group_name_H-M "P 65"
_symmetry_space_group_name_Hall "P 65"
_omdb_cod_original_Hall "P 65"
_symmetry_Int_Tables_number 170
 
_cell_length_a    9.48300
_cell_length_b    9.48300
_cell_length_c    15.69700
_cell_angle_alpha 90.00000
_cell_angle_beta  90.00000
_cell_angle_gamma 120.00000
 
loop_
_space_group_symop_id
_space_group_symop_operation_xyz
1 x,y,z
2 x-y,x,z+5/6
3 -y,x-y,z+2/3
4 -x,-y,z+1/2
5 -x+y,-x,z+1/3
6 y,-x+y,z+1/6
 
loop_
_atom_site_label
_atom_site_type_symbol
_atom_site_symmetry_multiplicity
_atom_site_Wyckoff_label
_atom_site_fract_x
_atom_site_fract_y
_atom_site_fract_z
_atom_site_occupancy
Fe1 Fe 6 a 0.44705 0.55221 0.08185 1.0
P1 P 6 a 0.21620 0.38450 -0.08242 1.0
P2 P 6 a 0.61520 0.78360 0.24577 1.0
B1 B 6 a 0.30020 0.15090 -0.08410 1.0
O1 O 6 a 0.06790 0.38590 -0.04940 1.0
O2 O 6 a 0.18460 0.46900 0.12130 1.0
O3 O 6 a 0.19170 0.21400 -0.06660 1.0
O4 O 6 a 0.23460 0.41320 0.81920 1.0
O5 O 6 a 0.37690 0.51300 -0.04590 1.0
O6 O 6 a 0.48840 0.62810 0.20400 1.0
O7 O 6 a 0.50080 0.79480 0.05460 1.0
O8 O 6 a 0.58740 0.76490 0.34390 1.0
O9 O 6 a 0.68130 0.61650 0.04520 1.0
O10 O 6 a 0.79300 0.81510 0.22900 1.0
O11 O 6 a 0.10930 0.16900 0.27210 0.598
N1 N 6 a 0.14700 0.26200 0.24400 0.402
Fe2 Fe 6 a 0.04400 0.37000 0.24700 0.051
 

