# CIF file
# This is a cif file prepared for use with the openmaterialsdb.se
#
# The cif file was imported from the Crystallography Open Database (COD)
# http://www.crystallography.net/
# based on data placed in the public domain by the contributors.
#
# The original file in cod had 
#COD-MD5: 4aef670ce7d4d63515764be96864db3b
#
# It was then processed with the FINDSYM tool by
# Harold T. Stokes, Branton J. Campbell, Dorian M. Hatch
# Brigham Young University, Provo, Utah, USA
# which was used to update the structure information.
#
# The original header in COD and relevant COD data follows:
#------------------------------------------------------------------------------
#$Date: 2012-02-28 12:14:52 +0000 (Tue, 28 Feb 2012) $
#$Revision: 35911 $
#$URL: file:///home/coder/svn-repositories/cod/cif/5/90/00/5900001.cif $
#------------------------------------------------------------------------------
data_5900001
_journal_name_full               'DAN SSSR'
_journal_page_first              1161
_journal_volume                  78
_journal_year                    1951
_chemical_name_systematic        Triiodomethane
_[local]_cod_data_source_file    002_triiodomethane.cif
_[local]_cod_data_source_block   triiodomethane
loop_
_citation_id
_citation_coordinate_linkage
_citation_title
_citation_book_title
_citation_country
_citation_page_first
_citation_page_last
_citation_year
_citation_book_publisher
_[local]_cod_citation_special_details
1 yes ? 'Organicheskaja Kristallokhimija' USSR ? ? 1955
'Izdatel'stvo Akademii Nauk SSSR'
;

Coordinates are presented as published in this book, Kitajgorodskij's
"Organicheskaja Kristallokhimija", keyed in manually.

Saulius Gra\<zulis
;
loop_
_citation_author_citation_id
_citation_author_name
1 'A. I. Kitajgorodskij'
_cod_database_code 5900001

#
# Data extracted using the FINDSYM utility follows
#
 
_audit_creation_method FINDSYM
 
_symmetry_space_group_name_H-M "P 63"
_symmetry_space_group_name_Hall 'P 6c'
_[local]_omdb_cod_original_Hall 'P 6c'
_symmetry_Int_Tables_number 173
 
_cell_length_a    6.83000
_cell_length_b    6.83000
_cell_length_c    7.53000
_cell_angle_alpha 90.00000
_cell_angle_beta  90.00000
_cell_angle_gamma 120.00000
 
loop_
_space_group_symop_id
_space_group_symop_operation_xyz
1 x,y,z
2 x-y,x,z+1/2
3 -y,x-y,z
4 -x,-y,z+1/2
5 -x+y,-x,z
6 y,-x+y,z+1/2
 
loop_
_atom_site_label
_atom_site_type_symbol
_atom_site_symmetry_multiplicity
_atom_site_Wyckoff_label
_atom_site_fract_x
_atom_site_fract_y
_atom_site_fract_z
_atom_site_occupancy
I1 I 6 c 0.35600 0.04400 0.00000 1.0
C1 C 2 b 0.33333 0.66667 0.59600 1.0
H1 H 2 b 0.33333 0.66667 0.73900 1.0
 

