# CIF file
# This is a cif file prepared for use with the openmaterialsdb.se
#
# The cif file was imported from the Crystallography Open Database (COD)
# http://www.crystallography.net/
# based on data placed in the public domain by the contributors.
#
# The original file in cod had 
#COD-MD5: 8a30baa8c4c44b854c1d1b7c1e627b02
#
# It was then processed with the FINDSYM tool by
# Harold T. Stokes, Branton J. Campbell, Dorian M. Hatch
# Brigham Young University, Provo, Utah, USA
# which was used to update the structure information.
#
# The original header in COD and relevant COD data follows:
#------------------------------------------------------------------------------
#$Date: 2014-07-12 08:06:43 +0000 (Sat, 12 Jul 2014) $
#$Revision: 120115 $
#$URL: file:///home/coder/svn-repositories/cod/cif/9/01/31/9013111.cif $
#------------------------------------------------------------------------------
data_9013111
loop_
_publ_author_name
'Vijayakumar, V.'
'Godwal, B. K.'
'Vohra, Y. K.'
'Sikka, S. K.'
'Chidambaram, R.'
_publ_section_title
;
 On the high-pressure phase transition in beryllium metal
 Locality: synthetic
 Sample: at P = 28.3 GPa
 Note: phase II
;
_journal_name_full               'Journal of Physics F: Metal Physics'
_journal_page_first              L65
_journal_page_last               L68
_journal_volume                  14
_journal_year                    1984
_chemical_name_common            Beryllium
_diffrn_ambient_pressure         2.83e+07
_exptl_crystal_density_diffrn    2.153
_cod_database_code               9013111
_journal_paper_doi 10.1088/0305-4608/14/5/002

#
# Data extracted using the FINDSYM utility follows
#
 
_audit_creation_method FINDSYM
 
_symmetry_space_group_name_H-M "P 21 21 2"
_symmetry_space_group_name_Hall 'P 2 2ab'
_[local]_omdb_cod_original_Hall 'P 2 2ab'
_symmetry_Int_Tables_number 18
 
_cell_length_a    2.16800
_cell_length_b    3.75500
_cell_length_c    3.41600
_cell_angle_alpha 90.00000
_cell_angle_beta  90.00000
_cell_angle_gamma 90.00000
 
loop_
_space_group_symop_id
_space_group_symop_operation_xyz
1 x,y,z
2 x+1/2,-y+1/2,-z
3 -x+1/2,y+1/2,-z
4 -x,-y,z
 
loop_
_atom_site_label
_atom_site_type_symbol
_atom_site_symmetry_multiplicity
_atom_site_Wyckoff_label
_atom_site_fract_x
_atom_site_fract_y
_atom_site_fract_z
_atom_site_occupancy
Be1 Be 4 c 0.17000 0.32000 0.70000 1.0
 

