# CIF file
# This is a cif file prepared for use with the openmaterialsdb.se
#
# The cif file was imported from the Crystallography Open Database (COD)
# http://www.crystallography.net/
# based on data placed in the public domain by the contributors.
#
# The original file in cod had 
#COD-MD5: 94dc7d948f2ec473ccfab55bda594e56
#
# It was then processed with the FINDSYM tool by
# Harold T. Stokes, Branton J. Campbell, Dorian M. Hatch
# Brigham Young University, Provo, Utah, USA
# which was used to update the structure information.
#
# The original header in COD and relevant COD data follows:
#------------------------------------------------------------------------------
#$Date: 2013-05-09 14:27:13 +0000 (Thu, 09 May 2013) $
#$Revision: 86002 $
#$URL: file:///home/coder/svn-repositories/cod/cif/9/00/80/9008092.cif $
#------------------------------------------------------------------------------
data_9008092
loop_
_publ_author_name
'Arnold, H.'
_publ_section_title
;Die struktur des hochquarzes Note: sample is at T = 650 deg C Note: symmetry
 constraints on the temperature factors were applied incorrectly
;
_journal_name_full               'Zeitschrift fur Kristallographie'
_journal_page_first              467
_journal_page_last               469
_journal_volume                  117
_journal_year                    1962
_chemical_name_mineral           Quartz
_diffrn_ambient_temperature      923.15
_exptl_crystal_density_diffrn    2.517
_[local]_cod_chemical_formula_sum_orig 'Si O2'
_cod_database_code               9008092
_database_code_amcsd             0010604

#
# Data extracted using the FINDSYM utility follows
#
 
_audit_creation_method FINDSYM
 
_symmetry_space_group_name_H-M "P 62 2 2"
_symmetry_space_group_name_Hall 'P 62 2c (0 0 1)'
_[local]_omdb_cod_original_Hall 'P 62 2c (0 0 1)'
_symmetry_Int_Tables_number 180
 
_cell_length_a    5.01000
_cell_length_b    5.01000
_cell_length_c    5.47000
_cell_angle_alpha 90.00000
_cell_angle_beta  90.00000
_cell_angle_gamma 120.00000
 
loop_
_space_group_symop_id
_space_group_symop_operation_xyz
1 x,y,z
2 x-y,x,z+1/3
3 -y,x-y,z+2/3
4 -x,-y,z
5 -x+y,-x,z+1/3
6 y,-x+y,z+2/3
7 x-y,-y,-z
8 x,x-y,-z+1/3
9 y,x,-z+2/3
10 -x+y,y,-z
11 -x,-x+y,-z+1/3
12 -y,-x,-z+2/3
 
loop_
_atom_site_label
_atom_site_type_symbol
_atom_site_symmetry_multiplicity
_atom_site_Wyckoff_label
_atom_site_fract_x
_atom_site_fract_y
_atom_site_fract_z
_atom_site_occupancy
Si1 Si 3 c 0.50000 0.00000 0.00000 1.0
O1 O 6 j 0.78770 0.57540 0.50000 1.0
 

