# CIF file
# This is a cif file prepared for use with the openmaterialsdb.se
#
# The cif file was imported from the Crystallography Open Database (COD)
# http://www.crystallography.net/
# based on data placed in the public domain by the contributors.
#
# The original file in cod had 
#COD-MD5: 5a48bb1bd7c26cddc0a9b73e2c2d39fa
#
# It was then processed with the FINDSYM tool by
# Harold T. Stokes, Branton J. Campbell, Dorian M. Hatch
# Brigham Young University, Provo, Utah, USA
# which was used to update the structure information.
#
# The original header in COD and relevant COD data follows:
#------------------------------------------------------------------------------
#$Date: 2014-07-11 22:16:09 +0000 (Fri, 11 Jul 2014) $
#$Revision: 120081 $
#$URL: file:///home/coder/svn-repositories/cod/cif/4/30/77/4307799.cif $
#------------------------------------------------------------------------------
data_4307799
loop_
_publ_author_name
'Andriy V. Tkachuk'
'Davin G. Piercey'
'Arthur Mar'
_publ_contact_author_address
; Department of Chemistry
  University of Alberta
  Edmonton, AB
  Canada  T6G 2G2
;
_publ_contact_author_email       arthur.mar@ualberta.ca
_publ_contact_author_fax         '(780) 492-8231'
_publ_contact_author_name        'Dr. Arthur Mar'
_publ_contact_author_phone       '(780) 492-5592'
_publ_section_title
;
Ternary Zirconium Tin Antimonide ZrSn2-xSbx (0.2 < x < 0.8), Different
from the Parent Binaries ZrSn2 and ZrSb2
;
_journal_name_full               'Inorganic Chemistry'
_journal_page_first              2877
_journal_page_last               2882
_journal_volume                  46
_journal_year                    2007
_chemical_name_common            'Zirconium tin antimony (1/1.3/0.7)'
_chemical_name_systematic        'Zirconium tin antimony (1/1.3/0.7)'
_computing_cell_refinement       'Bruker SAINT 7.06 (Bruker, 2004)'
_computing_data_collection       'Bruker SMART 5.054 (Bruker, 1999)'
_computing_data_reduction        'Bruker SAINT 7.06'
_computing_molecular_graphics    'ATOMS 5.1 (Dowty, 1999)'
_computing_publication_material  'Bruker SHELXTL 6.12'
_computing_structure_refinement  'Bruker SHELXTL 6.12'
_computing_structure_solution    'Bruker SHELXTL 6.12'
_diffrn_ambient_temperature      295(2)
_diffrn_measured_fraction_theta_full 0.995
_diffrn_measured_fraction_theta_max 0.995
_diffrn_measurement_device_type  'Bruker Platform/SMART 1000 CCD'
_diffrn_measurement_method       \w-scans
_diffrn_radiation_monochromator  graphite
_diffrn_radiation_source         'fine-focus sealed tube'
_diffrn_radiation_type           MoK\a
_diffrn_radiation_wavelength     0.71073
_diffrn_reflns_av_R_equivalents  0.0380
_diffrn_reflns_av_sigmaI/netI    0.0184
_diffrn_reflns_limit_h_max       8
_diffrn_reflns_limit_h_min       -8
_diffrn_reflns_limit_k_max       8
_diffrn_reflns_limit_k_min       -8
_diffrn_reflns_limit_l_max       11
_diffrn_reflns_limit_l_min       -11
_diffrn_reflns_number            2734
_diffrn_reflns_theta_full        33.00
_diffrn_reflns_theta_max         33.00
_diffrn_reflns_theta_min         4.27
_diffrn_standards_number         0
_exptl_absorpt_coefficient_mu    22.471
_exptl_absorpt_correction_T_max  0.16201
_exptl_absorpt_correction_T_min  0.06583
_exptl_absorpt_correction_type   numerical
_exptl_absorpt_process_details   'Bruker SHELXTL 6.12 (Sheldrick, 2001)'
_exptl_crystal_colour            grey
_exptl_crystal_density_diffrn    8.202
_exptl_crystal_density_method    'not measured'
_exptl_crystal_description       prism
_exptl_crystal_F_000             422
_exptl_crystal_size_max          0.168
_exptl_crystal_size_mid          0.134
_exptl_crystal_size_min          0.113
_refine_diff_density_max         1.991
_refine_diff_density_min         -4.432
_refine_diff_density_rms         0.796
_refine_ls_abs_structure_details 'Flack H D (1983), Acta Cryst. A39, 876-881'
_refine_ls_abs_structure_Flack   0.0(6)
_refine_ls_extinction_coef       0.095(6)
_refine_ls_extinction_expression Fc^*^=kFc[1+0.001xFc^2^\l^3^/sin(2\q)]^-1/4^
_refine_ls_extinction_method     SHELXL
_refine_ls_goodness_of_fit_ref   1.471
_refine_ls_hydrogen_treatment    none
_refine_ls_matrix_type           full
_refine_ls_number_parameters     10
_refine_ls_number_reflns         263
_refine_ls_number_restraints     0
_refine_ls_restrained_S_all      1.471
_refine_ls_R_factor_all          0.0355
_refine_ls_R_factor_gt           0.0335
_refine_ls_shift/su_max          0.000
_refine_ls_shift/su_mean         0.000
_refine_ls_structure_factor_coef Fsqd
_refine_ls_weighting_details
'calc w=1/[\s^2^(Fo^2^)+(0.0419P)^2^+0.0000P] where P=(Fo^2^+2Fc^2^)/3'
_refine_ls_weighting_scheme      calc
_refine_ls_wR_factor_gt          0.0850
_refine_ls_wR_factor_ref         0.0861
_reflns_number_gt                238
_reflns_number_total             263
_reflns_threshold_expression     I>2\s(I)
_[local]_cod_data_source_file    ic062277rsi20061129_040851_2.cif
_[local]_cod_data_source_block   ZrSn1.3Sb0.7
_[local]_cod_cif_authors_sg_Hall 'P 64 2c (0 0 -1)'
_[local]_cod_chemical_formula_sum_orig 'Sb0.70 Sn1.30 Zr'
_cod_database_code               4307799
_journal_paper_doi 10.1021/ic062277r

#
# Data extracted using the FINDSYM utility follows
#
 
_audit_creation_method FINDSYM
 
_symmetry_space_group_name_H-M "P 64 2 2"
_symmetry_space_group_name_Hall 'P 64 2c (0 0 -1)'
_[local]_omdb_cod_original_Hall 'P 64 2c (0 0 -1)'
_symmetry_Int_Tables_number 181
 
_cell_length_a    5.51420
_cell_length_b    5.51420
_cell_length_c    7.62870
_cell_angle_alpha 90.00000
_cell_angle_beta  90.00000
_cell_angle_gamma 120.00000
 
loop_
_space_group_symop_id
_space_group_symop_operation_xyz
1 x,y,z
2 x-y,x,z+2/3
3 -y,x-y,z+1/3
4 -x,-y,z
5 -x+y,-x,z+2/3
6 y,-x+y,z+1/3
7 x-y,-y,-z
8 x,x-y,-z+2/3
9 y,x,-z+1/3
10 -x+y,y,-z
11 -x,-x+y,-z+2/3
12 -y,-x,-z+1/3
 
loop_
_atom_site_label
_atom_site_type_symbol
_atom_site_symmetry_multiplicity
_atom_site_Wyckoff_label
_atom_site_fract_x
_atom_site_fract_y
_atom_site_fract_z
_atom_site_occupancy
Zr1 Zr 3 d 0.50000 0.00000 0.50000 1.0
Sb1 Sb 6 j 0.16699 0.33398 0.50000 0.35
Sn1 Sn 6 j 0.16699 0.33398 0.50000 0.65
 

