# CIF file
# This is a cif file prepared for use with the openmaterialsdb.se
#
# The cif file was imported from the Crystallography Open Database (COD)
# http://www.crystallography.net/
# based on data placed in the public domain by the contributors.
#
# The original file in cod had 
#COD-MD5: 6039eb34766431a276770fac9c0f39a7
#
# It was then processed with the FINDSYM tool by
# Harold T. Stokes, Branton J. Campbell, Dorian M. Hatch
# Brigham Young University, Provo, Utah, USA
# which was used to update the structure information.
#
# The original header in COD and relevant COD data follows:
#------------------------------------------------------------------------------
#$Date: 2014-07-12 08:06:43 +0000 (Sat, 12 Jul 2014) $
#$Revision: 120115 $
#$URL: file:///home/coder/svn-repositories/cod/cif/9/01/16/9011694.cif $
#------------------------------------------------------------------------------
data_9011694
loop_
_publ_author_name
'Hull, S.'
'Keen, D. A.'
_publ_section_title
;
 Pressure-induced phase transitions in AgCl, AgBr, and AgI
 Sample: P =  0.0 GPa, Phase II
;
_journal_name_full               'Physical Review B'
_journal_page_first              750
_journal_page_last               761
_journal_volume                  59
_journal_year                    1999
_diffrn_ambient_pressure         0
_exptl_crystal_density_diffrn    5.657
_cod_database_code               9011694
_journal_paper_doi 10.1103/PhysRevB.59.750

#
# Data extracted using the FINDSYM utility follows
#
 
_audit_creation_method FINDSYM
 
_symmetry_space_group_name_H-M "P 6 m m"
_symmetry_space_group_name_Hall 'P 6 -2'
_[local]_omdb_cod_original_Hall 'P 6c -2c'
_symmetry_Int_Tables_number 183
 
_cell_length_a    4.59900
_cell_length_b    4.59900
_cell_length_c    3.76200
_cell_angle_alpha 90.00000
_cell_angle_beta  90.00000
_cell_angle_gamma 120.00000
 
loop_
_space_group_symop_id
_space_group_symop_operation_xyz
1 x,y,z
2 x-y,x,z
3 -y,x-y,z
4 -x,-y,z
5 -x+y,-x,z
6 y,-x+y,z
7 -x+y,y,z
8 -x,-x+y,z
9 -y,-x,z
10 x-y,-y,z
11 x,x-y,z
12 y,x,z
 
loop_
_atom_site_label
_atom_site_type_symbol
_atom_site_symmetry_multiplicity
_atom_site_Wyckoff_label
_atom_site_fract_x
_atom_site_fract_y
_atom_site_fract_z
_atom_site_occupancy
Ag1 Ag 1 a 0.00000 0.00000 0.00000 1.0
I1 I 1 a 0.00000 0.00000 0.33000 1.0
 

