# CIF file
# This is a cif file prepared for use with the openmaterialsdb.se
#
# The cif file was imported from the Crystallography Open Database (COD)
# http://www.crystallography.net/
# based on data placed in the public domain by the contributors.
#
# The original file in cod had 
#COD-MD5: b87f54d44427e26915251879863898e7
#
# It was then processed with the FINDSYM tool by
# Harold T. Stokes, Branton J. Campbell, Dorian M. Hatch
# Brigham Young University, Provo, Utah, USA
# which was used to update the structure information.
#
# The original header in COD and relevant COD data follows:
#------------------------------------------------------------------------------
#$Date: 2014-07-12 08:06:43 +0000 (Sat, 12 Jul 2014) $
#$Revision: 120115 $
#$URL: file:///home/coder/svn-repositories/cod/cif/9/01/67/9016710.cif $
#------------------------------------------------------------------------------
data_9016710
loop_
_publ_author_name
'Hejny, C.'
'Miletich, R.'
'Jasser, A.'
'Schouwink, P.'
'Crichton, W.'
'Kahlenberg, V.'
_publ_section_title
;
 Second-order P6c2-P31c transition and structural crystallography of
 the cyclosilicate benitoite, BaTiSi3O9, at high pressure
 Note: P = 4.01 GPa
;
_journal_name_full               'American Mineralogist'
_journal_page_first              1749
_journal_page_last               1763
_journal_volume                  97
_journal_year                    2012
_chemical_compound_source        'San Benito, California, USA'
_chemical_name_mineral           Benitoite
_database_code_amcsd             0019510
_exptl_crystal_density_diffrn    3.815
_[local]_cod_chemical_formula_sum_orig 'Ba Ti Si3 O9'
_cod_database_code               9016710
_journal_paper_doi 10.2138/am.2012.4175

#
# Data extracted using the FINDSYM utility follows
#
 
_audit_creation_method FINDSYM
 
_symmetry_space_group_name_H-M "P -6 c 2"
_symmetry_space_group_name_Hall 'P -6c 2'
_[local]_omdb_cod_original_Hall 'P -6c 2'
_symmetry_Int_Tables_number 188
 
_cell_length_a    6.56050
_cell_length_b    6.56050
_cell_length_c    9.65740
_cell_angle_alpha 90.00000
_cell_angle_beta  90.00000
_cell_angle_gamma 120.00000
 
loop_
_space_group_symop_id
_space_group_symop_operation_xyz
1 x,y,z
2 -y,x-y,z
3 -x+y,-x,z
4 x,x-y,-z
5 -x+y,y,-z
6 -y,-x,-z
7 -x+y,-x,-z+1/2
8 x,y,-z+1/2
9 -y,x-y,-z+1/2
10 -x+y,y,z+1/2
11 -y,-x,z+1/2
12 x,x-y,z+1/2
 
loop_
_atom_site_label
_atom_site_type_symbol
_atom_site_symmetry_multiplicity
_atom_site_Wyckoff_label
_atom_site_fract_x
_atom_site_fract_y
_atom_site_fract_z
_atom_site_occupancy
Ba1 Ba 2 e 0.66667 0.33333 0.00000 1.0
Ti1 Ti 2 c 0.33333 0.66667 0.00000 1.0
Si1 Si 6 k 0.06880 0.28820 0.25000 1.0
O1 O 12 l 0.08700 0.65300 0.88770 1.0
O2 O 6 k 0.81200 0.06700 0.25000 1.0
 

