# CIF file
# This is a cif file prepared for use with the openmaterialsdb.se
#
# The cif file was imported from the Crystallography Open Database (COD)
# http://www.crystallography.net/
# based on data placed in the public domain by the contributors.
#
# The original file in cod had 
#COD-MD5: d6ef5612e908d13166403a6e92105aac
#
# It was then processed with the FINDSYM tool by
# Harold T. Stokes, Branton J. Campbell, Dorian M. Hatch
# Brigham Young University, Provo, Utah, USA
# which was used to update the structure information.
#
# The original header in COD and relevant COD data follows:
#------------------------------------------------------------------------------
#$Date: 2013-11-26 13:37:51 +0000 (Tue, 26 Nov 2013) $
#$Revision: 91022 $
#$URL: file:///home/coder/svn-repositories/cod/cif/1/01/12/1011223.cif $
#------------------------------------------------------------------------------
data_1011223
loop_
_publ_author_name
'Corey, R B'
'Wyckoff, R W G'
_publ_section_title              'The crystal structure of zinc hydroxide'
_journal_coden_ASTM              ZEKGAX
_journal_name_full
;
Zeitschrift fuer Kristallographie, Kristallgeometrie, Kristallphysik,
Kristallchemie (-144,1977)
;
_journal_page_first              8
_journal_page_last               18
_journal_volume                  86
_journal_year                    1933
_chemical_compound_source        'synthetic by precipitation'
_chemical_name_mineral           Wuelfingite
_chemical_name_systematic        'Zinc hydroxide'
_exptl_crystal_density_meas      3.05
_cod_database_code               1011223

#
# Data extracted using the FINDSYM utility follows
#
 
_audit_creation_method FINDSYM
 
_symmetry_space_group_name_H-M "P 21 21 21"
_symmetry_space_group_name_Hall 'P 2ac 2ab'
_[local]_omdb_cod_original_Hall 'P 2ac 2ab'
_symmetry_Int_Tables_number 19
 
_cell_length_a    5.16000
_cell_length_b    8.53000
_cell_length_c    4.92000
_cell_angle_alpha 90.00000
_cell_angle_beta  90.00000
_cell_angle_gamma 90.00000
 
loop_
_space_group_symop_id
_space_group_symop_operation_xyz
1 x,y,z
2 x+1/2,-y+1/2,-z
3 -x,y+1/2,-z+1/2
4 -x+1/2,-y,z+1/2
 
loop_
_atom_site_label
_atom_site_type_symbol
_atom_site_symmetry_multiplicity
_atom_site_Wyckoff_label
_atom_site_fract_x
_atom_site_fract_y
_atom_site_fract_z
_atom_site_occupancy
Zn1 Zn 4 a 0.10000 0.62500 0.67500 1.0
O1 O 4 a 0.12500 0.82500 0.87000 1.0
O2 O 4 a 0.43000 0.52500 0.58500 1.0
 

