# CIF file
# This is a cif file prepared for use with the openmaterialsdb.se
#
# The cif file was imported from the Crystallography Open Database (COD)
# http://www.crystallography.net/
# based on data placed in the public domain by the contributors.
#
# The original file in cod had 
#COD-MD5: 39b337817d482e2ba06265ff5a036ee1
#
# It was then processed with the FINDSYM tool by
# Harold T. Stokes, Branton J. Campbell, Dorian M. Hatch
# Brigham Young University, Provo, Utah, USA
# which was used to update the structure information.
#
# The original header in COD and relevant COD data follows:
#------------------------------------------------------------------------------
#$Date: 2013-05-05 14:21:46 +0000 (Sun, 05 May 2013) $
#$Revision: 85285 $
#$URL: file:///home/coder/svn-repositories/cod/cif/9/01/29/9012918.cif $
#------------------------------------------------------------------------------
data_9012918
loop_
_publ_author_name
'Olijnyk, H.'
'Sikka, S. K.'
'Holzapfel, W. B.'
_publ_section_title
;
 Structural phase transitions in Si and Ge under pressures up to 50 GPa
 Locality: synthetic
 Sample: at P = 19.5 GPa
 Note: phase V, structure stable between 16 GPa & 34 GPa
;
_journal_name_full               'Physics Letters'
_journal_page_first              137
_journal_page_last               140
_journal_volume                  103A
_journal_year                    1984
_chemical_name_common            Silicon
_diffrn_ambient_pressure         1.95e+07
_exptl_crystal_density_diffrn    3.554
_cod_database_code               9012918

#
# Data extracted using the FINDSYM utility follows
#
 
_audit_creation_method FINDSYM
 
_symmetry_space_group_name_H-M "P 6/m 2/m 2/m"
_symmetry_space_group_name_Hall '-P 6 2'
_[local]_omdb_cod_original_Hall '-P 6 2'
_symmetry_Int_Tables_number 191
 
_cell_length_a    2.52700
_cell_length_b    2.52700
_cell_length_c    2.37300
_cell_angle_alpha 90.00000
_cell_angle_beta  90.00000
_cell_angle_gamma 120.00000
 
loop_
_space_group_symop_id
_space_group_symop_operation_xyz
1 x,y,z
2 x-y,x,z
3 -y,x-y,z
4 -x,-y,z
5 -x+y,-x,z
6 y,-x+y,z
7 x-y,-y,-z
8 x,x-y,-z
9 y,x,-z
10 -x+y,y,-z
11 -x,-x+y,-z
12 -y,-x,-z
13 -x,-y,-z
14 -x+y,-x,-z
15 y,-x+y,-z
16 x,y,-z
17 x-y,x,-z
18 -y,x-y,-z
19 -x+y,y,z
20 -x,-x+y,z
21 -y,-x,z
22 x-y,-y,z
23 x,x-y,z
24 y,x,z
 
loop_
_atom_site_label
_atom_site_type_symbol
_atom_site_symmetry_multiplicity
_atom_site_Wyckoff_label
_atom_site_fract_x
_atom_site_fract_y
_atom_site_fract_z
_atom_site_occupancy
Si1 Si 1 a 0.00000 0.00000 0.00000 1.0
 

