# CIF file
# This is a cif file prepared for use with the openmaterialsdb.se
#
# The cif file was imported from the Crystallography Open Database (COD)
# http://www.crystallography.net/
# based on data placed in the public domain by the contributors.
#
# The original file in cod had 
#COD-MD5: ec6d85940ca0dc7d0429d3348d2dc903
#
# It was then processed with the FINDSYM tool by
# Harold T. Stokes, Branton J. Campbell, Dorian M. Hatch
# Brigham Young University, Provo, Utah, USA
# which was used to update the structure information.
#
# The original header in COD and relevant COD data follows:
data_5910008
_chemical_name_systematic        'Zirconium iodide'
_[local]_cod_chemical_formula_sum_orig 'Zr I3'
_cod_database_code               5910008

#
# Data extracted using the FINDSYM utility follows
#
 
_audit_creation_method FINDSYM
 
_symmetry_space_group_name_H-M "P 63/m 2/c 2/m"
_symmetry_space_group_name_Hall '-P 6c 2'
_[local]_omdb_cod_original_Hall '-P 6c 2'
_symmetry_Int_Tables_number 193
 
_cell_length_a    7.25000
_cell_length_b    7.25000
_cell_length_c    6.64000
_cell_angle_alpha 90.00000
_cell_angle_beta  90.00000
_cell_angle_gamma 120.00000
 
loop_
_space_group_symop_id
_space_group_symop_operation_xyz
1 x,y,z
2 x-y,x,z+1/2
3 -y,x-y,z
4 -x,-y,z+1/2
5 -x+y,-x,z
6 y,-x+y,z+1/2
7 x-y,-y,-z+1/2
8 x,x-y,-z
9 y,x,-z+1/2
10 -x+y,y,-z
11 -x,-x+y,-z+1/2
12 -y,-x,-z
13 -x,-y,-z
14 -x+y,-x,-z+1/2
15 y,-x+y,-z
16 x,y,-z+1/2
17 x-y,x,-z
18 -y,x-y,-z+1/2
19 -x+y,y,z+1/2
20 -x,-x+y,z
21 -y,-x,z+1/2
22 x-y,-y,z
23 x,x-y,z+1/2
24 y,x,z
 
loop_
_atom_site_label
_atom_site_type_symbol
_atom_site_symmetry_multiplicity
_atom_site_Wyckoff_label
_atom_site_fract_x
_atom_site_fract_y
_atom_site_fract_z
_atom_site_occupancy
Zr1 Zr 2 b 0.00000 0.00000 0.00000 1.0
I1 I 6 g 0.67500 0.00000 0.25000 1.0
 

