# CIF file
# This is a cif file prepared for use with the openmaterialsdb.se
#
# The cif file was imported from the Crystallography Open Database (COD)
# http://www.crystallography.net/
# based on data placed in the public domain by the contributors.
#
# The original file in cod had 
#COD-MD5: 23a914b56091dc036b0aac1d91b048a9
#
# It was then processed with the FINDSYM tool by
# Harold T. Stokes, Branton J. Campbell, Dorian M. Hatch
# Brigham Young University, Provo, Utah, USA
# which was used to update the structure information.
#
# The original header in COD and relevant COD data follows:
#------------------------------------------------------------------------------
#$Date: 2012-02-28 12:14:52 +0000 (Tue, 28 Feb 2012) $
#$Revision: 35911 $
#$URL: file:///home/coder/svn-repositories/cod/cif/5/90/00/5900021.cif $
#------------------------------------------------------------------------------
data_5900021
_journal_name_full               Strukturbericht
_journal_page_first              803
_journal_volume                  2
_chemical_name_systematic        'Tetramethyl silicate'
_[local]_cod_data_source_file    022_tetramethyl_silicate.cif
_[local]_cod_data_source_block   tetramethyl_silicate
loop_
_citation_id
_citation_coordinate_linkage
_citation_title
_citation_book_title
_citation_country
_citation_page_first
_citation_page_last
_citation_year
_citation_book_publisher
_[local]_cod_citation_special_details
1 yes ? 'Organicheskaja Kristallokhimija' USSR ? ? 1955
'Izdatel'stvo Akademii Nauk SSSR'
;

Coordinates are presented as published in this book, Kitajgorodskij's
"Organicheskaja Kristallokhimija", keyed in manually.

Saulius Gra\<zulis
;
loop_
_citation_author_citation_id
_citation_author_name
1 'A. I. Kitajgorodskij'
_cod_database_code 5900021

#
# Data extracted using the FINDSYM utility follows
#
 
_audit_creation_method FINDSYM
 
_symmetry_space_group_name_H-M "P 2 3"
_symmetry_space_group_name_Hall 'P 2 2 3'
_[local]_omdb_cod_original_Hall 'P 2 2 3'
_symmetry_Int_Tables_number 195
 
_cell_length_a    9.85000
_cell_length_b    9.85000
_cell_length_c    9.85000
_cell_angle_alpha 90.00000
_cell_angle_beta  90.00000
_cell_angle_gamma 90.00000
 
loop_
_space_group_symop_id
_space_group_symop_operation_xyz
1 x,y,z
2 x,-y,-z
3 -x,y,-z
4 -x,-y,z
5 y,z,x
6 y,-z,-x
7 -y,z,-x
8 -y,-z,x
9 z,x,y
10 z,-x,-y
11 -z,x,-y
12 -z,-x,y
 
loop_
_atom_site_label
_atom_site_type_symbol
_atom_site_symmetry_multiplicity
_atom_site_Wyckoff_label
_atom_site_fract_x
_atom_site_fract_y
_atom_site_fract_z
_atom_site_occupancy
Si1 Si 4 e 0.15000 0.15000 0.15000 1.0
O1 O 12 j 0.01000 0.09000 0.24000 1.0
O2 O 4 e 0.25000 0.25000 0.25000 1.0
C1 C 12 j -0.09000 0.05000 0.31000 1.0
C2 C 4 e 0.32000 0.32000 0.32000 1.0
 

