# CIF file
# This is a cif file prepared for use with the openmaterialsdb.se
#
# The cif file was imported from the Crystallography Open Database (COD)
# http://www.crystallography.net/
# based on data placed in the public domain by the contributors.
#
# The original file in cod had 
#COD-MD5: 906b9f20336a8606f8cba211b5506b72
#
# It was then processed with the FINDSYM tool by
# Harold T. Stokes, Branton J. Campbell, Dorian M. Hatch
# Brigham Young University, Provo, Utah, USA
# which was used to update the structure information.
#
# The original header in COD and relevant COD data follows:
#------------------------------------------------------------------------------
#$Date: 2014-07-11 14:35:18 +0000 (Fri, 11 Jul 2014) $
#$Revision: 120071 $
#$URL: file:///home/coder/svn-repositories/cod/cif/1/51/16/1511660.cif $
#------------------------------------------------------------------------------
data_1511660
loop_
_publ_author_name
'Levasseur, A.'
'Lloyd, D.J.'
'Hagenmuller, P.'
'Fouassier, C.'
_publ_section_title
;
 Determination structurale de la boracite Li4 B7 O12 Cl
;
_journal_name_full               'Journal of Solid State Chemistry'
_journal_page_first              318
_journal_page_last               324
_journal_volume                  8
_journal_year                    1973
_chemical_name_systematic        'Li4 (B7 O12 Cl)'
_citation_journal_id_ASTM        JSSCBI
_[local]_cod_data_source_file    boron4-x_317.cif
_[local]_cod_data_source_block   B7Cl1Li4O12
_[local]_cod_chemical_formula_sum_orig 'B7 Cl1 Li4 O12'
_cod_database_code               1511660
_journal_paper_doi 10.1016/S0022-4596(73)80028-3

#
# Data extracted using the FINDSYM utility follows
#
 
_audit_creation_method FINDSYM
 
_symmetry_space_group_name_H-M "F 2 3"
_symmetry_space_group_name_Hall 'F 2 2 3'
_[local]_omdb_cod_original_Hall 'F 2 2 3'
_symmetry_Int_Tables_number 196
 
_cell_length_a    12.15400
_cell_length_b    12.15400
_cell_length_c    12.15400
_cell_angle_alpha 90.00000
_cell_angle_beta  90.00000
_cell_angle_gamma 90.00000
 
loop_
_space_group_symop_id
_space_group_symop_operation_xyz
1 x,y,z
2 x,-y,-z
3 -x,y,-z
4 -x,-y,z
5 y,z,x
6 y,-z,-x
7 -y,z,-x
8 -y,-z,x
9 z,x,y
10 z,-x,-y
11 -z,x,-y
12 -z,-x,y
13 x,y+1/2,z+1/2
14 x,-y+1/2,-z+1/2
15 -x,y+1/2,-z+1/2
16 -x,-y+1/2,z+1/2
17 y,z+1/2,x+1/2
18 y,-z+1/2,-x+1/2
19 -y,z+1/2,-x+1/2
20 -y,-z+1/2,x+1/2
21 z,x+1/2,y+1/2
22 z,-x+1/2,-y+1/2
23 -z,x+1/2,-y+1/2
24 -z,-x+1/2,y+1/2
25 x+1/2,y,z+1/2
26 x+1/2,-y,-z+1/2
27 -x+1/2,y,-z+1/2
28 -x+1/2,-y,z+1/2
29 y+1/2,z,x+1/2
30 y+1/2,-z,-x+1/2
31 -y+1/2,z,-x+1/2
32 -y+1/2,-z,x+1/2
33 z+1/2,x,y+1/2
34 z+1/2,-x,-y+1/2
35 -z+1/2,x,-y+1/2
36 -z+1/2,-x,y+1/2
37 x+1/2,y+1/2,z
38 x+1/2,-y+1/2,-z
39 -x+1/2,y+1/2,-z
40 -x+1/2,-y+1/2,z
41 y+1/2,z+1/2,x
42 y+1/2,-z+1/2,-x
43 -y+1/2,z+1/2,-x
44 -y+1/2,-z+1/2,x
45 z+1/2,x+1/2,y
46 z+1/2,-x+1/2,-y
47 -z+1/2,x+1/2,-y
48 -z+1/2,-x+1/2,y
 
loop_
_atom_site_label
_atom_site_type_symbol
_atom_site_symmetry_multiplicity
_atom_site_Wyckoff_label
_atom_site_fract_x
_atom_site_fract_y
_atom_site_fract_z
_atom_site_occupancy
O1 O 48 h 0.09780 0.02180 0.31890 1.0
O2 O 48 h 0.68230 0.02320 0.40150 1.0
B1 B 16 e -0.09940 -0.09940 -0.09940 1.0
B2 B 24 f 0.25000 0.00000 0.00000 1.0
B3 B 16 e 0.39950 0.39950 0.39950 1.0
Li1 Li 16 e 0.12900 0.12900 0.12900 0.25
Li2 Li 16 e 0.63900 0.63900 0.63900 0.25
Cl1 Cl 4 c 0.25000 0.25000 0.25000 1.0
Cl2 Cl 4 d 0.75000 0.75000 0.75000 1.0
Li3 Li 24 g 0.48700 0.25000 0.25000 0.5
Li4 Li 24 g 0.54200 0.25000 0.25000 0.5
 

