# CIF file
# This is a cif file prepared for use with the openmaterialsdb.se
#
# The cif file was imported from the Crystallography Open Database (COD)
# http://www.crystallography.net/
# based on data placed in the public domain by the contributors.
#
# The original file in cod had 
#COD-MD5: 583c4682e29b6c5fcd4cb48c5377727d
#
# It was then processed with the FINDSYM tool by
# Harold T. Stokes, Branton J. Campbell, Dorian M. Hatch
# Brigham Young University, Provo, Utah, USA
# which was used to update the structure information.
#
# The original header in COD and relevant COD data follows:
#------------------------------------------------------------------------------
#$Date: 2013-05-09 13:53:25 +0000 (Thu, 09 May 2013) $
#$Revision: 86000 $
#$URL: file:///home/coder/svn-repositories/cod/cif/9/01/41/9014134.cif $
#------------------------------------------------------------------------------
data_9014134
loop_
_publ_author_name
'Mark, H.'
'Pohland, E.'
_publ_section_title
;
 Das Gitter des Ammoniaks.
 _cod_database_code 1010490
;
_journal_name_full               'Zeitschrift fur Kristallographie'
_journal_page_first              532
_journal_page_last               537
_journal_volume                  61
_journal_year                    1925
_database_code_amcsd             0017406
_exptl_crystal_density_diffrn    0.664
_cod_database_code               9014134
_amcsd_formula_title             'H3 N'

#
# Data extracted using the FINDSYM utility follows
#
 
_audit_creation_method FINDSYM
 
_symmetry_space_group_name_H-M "P 21 3"
_symmetry_space_group_name_Hall 'P 2ac 2ab 3'
_[local]_omdb_cod_original_Hall 'P 2ac 2ab 3'
_symmetry_Int_Tables_number 198
 
_cell_length_a    5.19300
_cell_length_b    5.19300
_cell_length_c    5.19300
_cell_angle_alpha 90.00000
_cell_angle_beta  90.00000
_cell_angle_gamma 90.00000
 
loop_
_space_group_symop_id
_space_group_symop_operation_xyz
1 x,y,z
2 x+1/2,-y+1/2,-z
3 -x,y+1/2,-z+1/2
4 -x+1/2,-y,z+1/2
5 y,z,x
6 y+1/2,-z+1/2,-x
7 -y,z+1/2,-x+1/2
8 -y+1/2,-z,x+1/2
9 z,x,y
10 z+1/2,-x+1/2,-y
11 -z,x+1/2,-y+1/2
12 -z+1/2,-x,y+1/2
 
loop_
_atom_site_label
_atom_site_type_symbol
_atom_site_symmetry_multiplicity
_atom_site_Wyckoff_label
_atom_site_fract_x
_atom_site_fract_y
_atom_site_fract_z
_atom_site_occupancy
N1 N 4 a 0.72000 0.72000 0.72000 1.0
 

