# CIF file
# This is a cif file prepared for use with the openmaterialsdb.se
#
# The cif file was imported from the Crystallography Open Database (COD)
# http://www.crystallography.net/
# based on data placed in the public domain by the contributors.
#
# The original file in cod had 
#COD-MD5: d15dd6159814cec20506a1113b3dbeb0
#
# It was then processed with the FINDSYM tool by
# Harold T. Stokes, Branton J. Campbell, Dorian M. Hatch
# Brigham Young University, Provo, Utah, USA
# which was used to update the structure information.
#
# The original header in COD and relevant COD data follows:
#------------------------------------------------------------------------------
#$Date: 2014-07-12 08:06:43 +0000 (Sat, 12 Jul 2014) $
#$Revision: 120115 $
#$URL: file:///home/coder/svn-repositories/cod/cif/9/01/63/9016382.cif $
#------------------------------------------------------------------------------
data_9016382
loop_
_publ_author_name
'Vegard, L.'
_publ_section_title
;
 Die Struktur von festem N2 O4 bei der Temperatur von fluessiger Luft.
 _cod_database_code 1010516
;
_journal_name_full               'Zeitschrift fur Physik'
_journal_page_first              184
_journal_page_last               203
_journal_volume                  68
_journal_year                    1931
_database_code_amcsd             0017427
_exptl_crystal_density_diffrn    1.954
_cod_database_code               9016382
_amcsd_formula_title             'N2 O4'
_journal_paper_doi 10.1007/BF01390966

#
# Data extracted using the FINDSYM utility follows
#
 
_audit_creation_method FINDSYM
 
_symmetry_space_group_name_H-M "I 21 3"
_symmetry_space_group_name_Hall 'I 2b 2c 3'
_[local]_omdb_cod_original_Hall 'I 2b 2c 3'
_symmetry_Int_Tables_number 199
 
_cell_length_a    7.77000
_cell_length_b    7.77000
_cell_length_c    7.77000
_cell_angle_alpha 90.00000
_cell_angle_beta  90.00000
_cell_angle_gamma 90.00000
 
loop_
_space_group_symop_id
_space_group_symop_operation_xyz
1 x,y,z
2 x,-y,-z+1/2
3 -x+1/2,y,-z
4 -x,-y+1/2,z
5 y,z,x
6 y,-z,-x+1/2
7 -y+1/2,z,-x
8 -y,-z+1/2,x
9 z,x,y
10 z,-x,-y+1/2
11 -z+1/2,x,-y
12 -z,-x+1/2,y
13 x+1/2,y+1/2,z+1/2
14 x+1/2,-y+1/2,-z
15 -x,y+1/2,-z+1/2
16 -x+1/2,-y,z+1/2
17 y+1/2,z+1/2,x+1/2
18 y+1/2,-z+1/2,-x
19 -y,z+1/2,-x+1/2
20 -y+1/2,-z,x+1/2
21 z+1/2,x+1/2,y+1/2
22 z+1/2,-x+1/2,-y
23 -z,x+1/2,-y+1/2
24 -z+1/2,-x,y+1/2
 
loop_
_atom_site_label
_atom_site_type_symbol
_atom_site_symmetry_multiplicity
_atom_site_Wyckoff_label
_atom_site_fract_x
_atom_site_fract_y
_atom_site_fract_z
_atom_site_occupancy
N1 N 12 b 0.40300 0.00000 0.25000 1.0
O1 O 24 c 0.25000 0.59700 0.32200 1.0
 

