# CIF file
# This is a cif file prepared for use with the openmaterialsdb.se
#
# The cif file was imported from the Crystallography Open Database (COD)
# http://www.crystallography.net/
# based on data placed in the public domain by the contributors.
#
# The original file in cod had 
#COD-MD5: effd05c756f1f6d3ccfb787bec209806
#
# It was then processed with the FINDSYM tool by
# Harold T. Stokes, Branton J. Campbell, Dorian M. Hatch
# Brigham Young University, Provo, Utah, USA
# which was used to update the structure information.
#
# The original header in COD and relevant COD data follows:
#------------------------------------------------------------------------------
#$Date: 2014-07-11 23:58:39 +0000 (Fri, 11 Jul 2014) $
#$Revision: 120093 $
#$URL: file:///home/coder/svn-repositories/cod/cif/4/31/76/4317612.cif $
#------------------------------------------------------------------------------
data_4317612
loop_
_publ_author_name
'Christine A. Dickerson'
'Mary J. Fisher'
'Richard E. Sykora'
'Thomas E. Albrecht-Schmitt'
'Jason A. Cody'
_publ_section_title
;
 Solvothermal Synthesis and Structure of a New Selenium-Rich
 Selenophosphate K3PSe4.2Se6
;
_journal_name_full               'Inorganic Chemistry'
_journal_page_first              640
_journal_page_last               642
_journal_volume                  41
_journal_year                    2002
_computing_structure_refinement  'SHELXL-97 (Sheldrick, 1997)'
_computing_structure_solution    'SHELXS-97 (Sheldrick, 1990)'
_diffrn_ambient_temperature      193(2)
_diffrn_measured_fraction_theta_full 1.000
_diffrn_measured_fraction_theta_max 1.000
_diffrn_measurement_device_type  'Bruker APEX'
_diffrn_measurement_method       '0.3 wide w/ exposures'
_diffrn_radiation_monochromator  graphite
_diffrn_radiation_source         'fine-focus sealed tube'
_diffrn_radiation_type           MoK\a
_diffrn_radiation_wavelength     0.71073
_diffrn_reflns_av_R_equivalents  0.0376
_diffrn_reflns_av_sigmaI/netI    0.0120
_diffrn_reflns_limit_h_max       21
_diffrn_reflns_limit_h_min       -21
_diffrn_reflns_limit_k_max       21
_diffrn_reflns_limit_k_min       -21
_diffrn_reflns_limit_l_max       21
_diffrn_reflns_limit_l_min       -21
_diffrn_reflns_number            10487
_diffrn_reflns_theta_full        28.15
_diffrn_reflns_theta_max         28.15
_diffrn_reflns_theta_min         2.15
_diffrn_standards_decay_%        0
_diffrn_standards_interval_count na
_diffrn_standards_interval_time  na
_diffrn_standards_number         na
_exptl_absorpt_coefficient_mu    27.007
_exptl_absorpt_correction_T_max  '0.668548 ratio of min/max'
_exptl_absorpt_correction_T_min  '0.668548 ratio of min/max'
_exptl_absorpt_correction_type   SADABS
_exptl_crystal_colour            silver
_exptl_crystal_density_diffrn    4.240
_exptl_crystal_density_meas      'not measured'
_exptl_crystal_density_method    'not measured'
_exptl_crystal_description       octahedron
_exptl_crystal_F_000             4928
_exptl_crystal_size_max          0.180
_exptl_crystal_size_mid          0.140
_exptl_crystal_size_min          0.140
_refine_diff_density_max         0.437
_refine_diff_density_min         -0.326
_refine_diff_density_rms         0.094
_refine_ls_extinction_method     none
_refine_ls_goodness_of_fit_ref   1.207
_refine_ls_hydrogen_treatment    mixed
_refine_ls_matrix_type           full
_refine_ls_number_parameters     17
_refine_ls_number_reflns         467
_refine_ls_number_restraints     0
_refine_ls_restrained_S_all      1.207
_refine_ls_R_factor_all          0.0169
_refine_ls_R_factor_gt           0.0156
_refine_ls_shift/su_max          0.002
_refine_ls_shift/su_mean         0.000
_refine_ls_structure_factor_coef Fsqd
_refine_ls_weighting_details
'calc w=1/[\s^2^(Fo^2^)+(0.0218P)^2^+12.1651P] where P=(Fo^2^+2Fc^2^)/3'
_refine_ls_weighting_scheme      calc
_refine_ls_wR_factor_gt          0.0416
_refine_ls_wR_factor_ref         0.0420
_reflns_number_gt                445
_reflns_number_total             467
_reflns_threshold_expression     >2sigma(I)
_[local]_cod_data_source_file    ic015602d_s1.cif
_[local]_cod_data_source_block   K3PSe4.2Se6
_[local]_cod_cif_authors_sg_H-M  'F d -3'
_cod_database_code               4317612
_journal_paper_doi 10.1021/ic015602d

#
# Data extracted using the FINDSYM utility follows
#
 
_audit_creation_method FINDSYM
 
_symmetry_space_group_name_H-M "F 2/d -3 (origin choice 2)"
_symmetry_space_group_name_Hall '-F 2uv 2vw 3'
_[local]_omdb_cod_original_Hall '-F 2uv 2vw 3'
_symmetry_Int_Tables_number 203
 
_cell_length_a    16.41510
_cell_length_b    16.41510
_cell_length_c    16.41510
_cell_angle_alpha 90.00000
_cell_angle_beta  90.00000
_cell_angle_gamma 90.00000
 
loop_
_space_group_symop_id
_space_group_symop_operation_xyz
1 x,y,z
2 x,-y+3/4,-z+3/4
3 -x+3/4,y,-z+3/4
4 -x+3/4,-y+3/4,z
5 y,z,x
6 y,-z+3/4,-x+3/4
7 -y+3/4,z,-x+3/4
8 -y+3/4,-z+3/4,x
9 z,x,y
10 z,-x+3/4,-y+3/4
11 -z+3/4,x,-y+3/4
12 -z+3/4,-x+3/4,y
13 -x,-y,-z
14 -x,y+1/4,z+1/4
15 x+1/4,-y,z+1/4
16 x+1/4,y+1/4,-z
17 -y,-z,-x
18 -y,z+1/4,x+1/4
19 y+1/4,-z,x+1/4
20 y+1/4,z+1/4,-x
21 -z,-x,-y
22 -z,x+1/4,y+1/4
23 z+1/4,-x,y+1/4
24 z+1/4,x+1/4,-y
25 x,y+1/2,z+1/2
26 x,-y+1/4,-z+1/4
27 -x+3/4,y+1/2,-z+1/4
28 -x+3/4,-y+1/4,z+1/2
29 y,z+1/2,x+1/2
30 y,-z+1/4,-x+1/4
31 -y+3/4,z+1/2,-x+1/4
32 -y+3/4,-z+1/4,x+1/2
33 z,x+1/2,y+1/2
34 z,-x+1/4,-y+1/4
35 -z+3/4,x+1/2,-y+1/4
36 -z+3/4,-x+1/4,y+1/2
37 -x,-y+1/2,-z+1/2
38 -x,y+3/4,z+3/4
39 x+1/4,-y+1/2,z+3/4
40 x+1/4,y+3/4,-z+1/2
41 -y,-z+1/2,-x+1/2
42 -y,z+3/4,x+3/4
43 y+1/4,-z+1/2,x+3/4
44 y+1/4,z+3/4,-x+1/2
45 -z,-x+1/2,-y+1/2
46 -z,x+3/4,y+3/4
47 z+1/4,-x+1/2,y+3/4
48 z+1/4,x+3/4,-y+1/2
49 x+1/2,y,z+1/2
50 x+1/2,-y+3/4,-z+1/4
51 -x+1/4,y,-z+1/4
52 -x+1/4,-y+3/4,z+1/2
53 y+1/2,z,x+1/2
54 y+1/2,-z+3/4,-x+1/4
55 -y+1/4,z,-x+1/4
56 -y+1/4,-z+3/4,x+1/2
57 z+1/2,x,y+1/2
58 z+1/2,-x+3/4,-y+1/4
59 -z+1/4,x,-y+1/4
60 -z+1/4,-x+3/4,y+1/2
61 -x+1/2,-y,-z+1/2
62 -x+1/2,y+1/4,z+3/4
63 x+3/4,-y,z+3/4
64 x+3/4,y+1/4,-z+1/2
65 -y+1/2,-z,-x+1/2
66 -y+1/2,z+1/4,x+3/4
67 y+3/4,-z,x+3/4
68 y+3/4,z+1/4,-x+1/2
69 -z+1/2,-x,-y+1/2
70 -z+1/2,x+1/4,y+3/4
71 z+3/4,-x,y+3/4
72 z+3/4,x+1/4,-y+1/2
73 x+1/2,y+1/2,z
74 x+1/2,-y+1/4,-z+3/4
75 -x+1/4,y+1/2,-z+3/4
76 -x+1/4,-y+1/4,z
77 y+1/2,z+1/2,x
78 y+1/2,-z+1/4,-x+3/4
79 -y+1/4,z+1/2,-x+3/4
80 -y+1/4,-z+1/4,x
81 z+1/2,x+1/2,y
82 z+1/2,-x+1/4,-y+3/4
83 -z+1/4,x+1/2,-y+3/4
84 -z+1/4,-x+1/4,y
85 -x+1/2,-y+1/2,-z
86 -x+1/2,y+3/4,z+1/4
87 x+3/4,-y+1/2,z+1/4
88 x+3/4,y+3/4,-z
89 -y+1/2,-z+1/2,-x
90 -y+1/2,z+3/4,x+1/4
91 y+3/4,-z+1/2,x+1/4
92 y+3/4,z+3/4,-x
93 -z+1/2,-x+1/2,-y
94 -z+1/2,x+3/4,y+1/4
95 z+3/4,-x+1/2,y+1/4
96 z+3/4,x+3/4,-y
 
loop_
_atom_site_label
_atom_site_type_symbol
_atom_site_symmetry_multiplicity
_atom_site_Wyckoff_label
_atom_site_fract_x
_atom_site_fract_y
_atom_site_fract_z
_atom_site_occupancy
K1 K 8 a 0.12500 0.12500 0.12500 1.0
K2 K 16 d 0.50000 0.50000 0.50000 1.0
Se1 Se 32 e 0.70232 0.70232 0.70232 1.0
Se2 Se 96 g 0.76316 0.38738 0.17878 1.0
P1 P 8 b 0.62500 0.62500 0.62500 1.0
 

