# CIF file
# This is a cif file prepared for use with the openmaterialsdb.se
#
# The cif file was imported from the Crystallography Open Database (COD)
# http://www.crystallography.net/
# based on data placed in the public domain by the contributors.
#
# The original file in cod had 
#COD-MD5: 97d591824508771234a41b43e3b1d59e
#
# It was then processed with the FINDSYM tool by
# Harold T. Stokes, Branton J. Campbell, Dorian M. Hatch
# Brigham Young University, Provo, Utah, USA
# which was used to update the structure information.
#
# The original header in COD and relevant COD data follows:
#------------------------------------------------------------------------------
#$Date: 2013-05-09 13:53:25 +0000 (Thu, 09 May 2013) $
#$Revision: 86000 $
#$URL: file:///home/coder/svn-repositories/cod/cif/9/01/52/9015265.cif $
#------------------------------------------------------------------------------
data_9015265
loop_
_publ_author_name
'Kjekshus, A.'
'Rakke, T.'
_publ_section_title
;
 Compounds with the skutterudite type crystal structure.
 III. Structural data for arsenides and antimonides,
;
_journal_name_full               'Acta Chemica Scandinavica A'
_journal_page_first              99
_journal_page_last               103
_journal_volume                  28
_journal_year                    1974
_chemical_compound_source        Synthetic
_database_code_amcsd             0017611
_exptl_crystal_density_diffrn    7.903
_[local]_cod_cif_authors_sg_H-M  'I m 3'
_cod_database_code               9015265
_amcsd_formula_title             RhSb3

#
# Data extracted using the FINDSYM utility follows
#
 
_audit_creation_method FINDSYM
 
_symmetry_space_group_name_H-M "I 2/m -3"
_symmetry_space_group_name_Hall '-I 2 2 3'
_[local]_omdb_cod_original_Hall '-I 2 2 3'
_symmetry_Int_Tables_number 204
 
_cell_length_a    9.23220
_cell_length_b    9.23220
_cell_length_c    9.23220
_cell_angle_alpha 90.00000
_cell_angle_beta  90.00000
_cell_angle_gamma 90.00000
 
loop_
_space_group_symop_id
_space_group_symop_operation_xyz
1 x,y,z
2 x,-y,-z
3 -x,y,-z
4 -x,-y,z
5 y,z,x
6 y,-z,-x
7 -y,z,-x
8 -y,-z,x
9 z,x,y
10 z,-x,-y
11 -z,x,-y
12 -z,-x,y
13 -x,-y,-z
14 -x,y,z
15 x,-y,z
16 x,y,-z
17 -y,-z,-x
18 -y,z,x
19 y,-z,x
20 y,z,-x
21 -z,-x,-y
22 -z,x,y
23 z,-x,y
24 z,x,-y
25 x+1/2,y+1/2,z+1/2
26 x+1/2,-y+1/2,-z+1/2
27 -x+1/2,y+1/2,-z+1/2
28 -x+1/2,-y+1/2,z+1/2
29 y+1/2,z+1/2,x+1/2
30 y+1/2,-z+1/2,-x+1/2
31 -y+1/2,z+1/2,-x+1/2
32 -y+1/2,-z+1/2,x+1/2
33 z+1/2,x+1/2,y+1/2
34 z+1/2,-x+1/2,-y+1/2
35 -z+1/2,x+1/2,-y+1/2
36 -z+1/2,-x+1/2,y+1/2
37 -x+1/2,-y+1/2,-z+1/2
38 -x+1/2,y+1/2,z+1/2
39 x+1/2,-y+1/2,z+1/2
40 x+1/2,y+1/2,-z+1/2
41 -y+1/2,-z+1/2,-x+1/2
42 -y+1/2,z+1/2,x+1/2
43 y+1/2,-z+1/2,x+1/2
44 y+1/2,z+1/2,-x+1/2
45 -z+1/2,-x+1/2,-y+1/2
46 -z+1/2,x+1/2,y+1/2
47 z+1/2,-x+1/2,y+1/2
48 z+1/2,x+1/2,-y+1/2
 
loop_
_atom_site_label
_atom_site_type_symbol
_atom_site_symmetry_multiplicity
_atom_site_Wyckoff_label
_atom_site_fract_x
_atom_site_fract_y
_atom_site_fract_z
_atom_site_occupancy
Rh1 Rh 8 c 0.25000 0.25000 0.25000 1.0
Sb1 Sb 24 g 0.00000 0.34200 0.84830 1.0
 

