# CIF file
# This is a cif file prepared for use with the openmaterialsdb.se
#
# The cif file was imported from the Crystallography Open Database (COD)
# http://www.crystallography.net/
# based on data placed in the public domain by the contributors.
#
# The original file in cod had 
#COD-MD5: 2f25e77cf6d8972d08dc99430f614675
#
# It was then processed with the FINDSYM tool by
# Harold T. Stokes, Branton J. Campbell, Dorian M. Hatch
# Brigham Young University, Provo, Utah, USA
# which was used to update the structure information.
#
# The original header in COD and relevant COD data follows:
#------------------------------------------------------------------------------
#$Date: 2014-07-11 14:35:18 +0000 (Fri, 11 Jul 2014) $
#$Revision: 120071 $
#$URL: file:///home/coder/svn-repositories/cod/cif/1/51/12/1511225.cif $
#------------------------------------------------------------------------------
data_1511225
loop_
_publ_author_name
'Jung, W.'
'Eibenstein, U.'
_publ_section_title
;
 Li2 Pd3 B and Li2 Pt3 B; ternary lithium borides of palladium and
 platinum with boron in octahedral coordination
;
_journal_name_full               'Journal of Solid State Chemistry'
_journal_page_first              21
_journal_page_last               24
_journal_volume                  133
_journal_year                    1997
_chemical_name_systematic        'Li2 Pt3 B'
_citation_journal_id_ASTM        JSSCBI
_[local]_cod_data_source_file    boron0-1_338.cif
_[local]_cod_data_source_block   B1Li2Pt3
_[local]_cod_chemical_formula_sum_orig 'B1 Li2 Pt3'
_cod_original_cell_volume        308.2582
_cod_database_code               1511225
_journal_paper_doi 10.1006/jssc.1997.7310

#
# Data extracted using the FINDSYM utility follows
#
 
_audit_creation_method FINDSYM
 
_symmetry_space_group_name_H-M "P 43 3 2"
_symmetry_space_group_name_Hall 'P 4acd 2ab 3'
_[local]_omdb_cod_original_Hall 'P 4acd 2ab 3'
_symmetry_Int_Tables_number 212
 
_cell_length_a    6.75520
_cell_length_b    6.75520
_cell_length_c    6.75520
_cell_angle_alpha 90.00000
_cell_angle_beta  90.00000
_cell_angle_gamma 90.00000
 
loop_
_space_group_symop_id
_space_group_symop_operation_xyz
1 x,y,z
2 x+1/2,-y+1/2,-z
3 -x,y+1/2,-z+1/2
4 -x+1/2,-y,z+1/2
5 y,z,x
6 y+1/2,-z+1/2,-x
7 -y,z+1/2,-x+1/2
8 -y+1/2,-z,x+1/2
9 z,x,y
10 z+1/2,-x+1/2,-y
11 -z,x+1/2,-y+1/2
12 -z+1/2,-x,y+1/2
13 -y+1/4,-x+1/4,-z+1/4
14 -y+3/4,x+1/4,z+3/4
15 y+3/4,-x+3/4,z+1/4
16 y+1/4,x+3/4,-z+3/4
17 -x+1/4,-z+1/4,-y+1/4
18 -x+3/4,z+1/4,y+3/4
19 x+3/4,-z+3/4,y+1/4
20 x+1/4,z+3/4,-y+3/4
21 -z+1/4,-y+1/4,-x+1/4
22 -z+3/4,y+1/4,x+3/4
23 z+3/4,-y+3/4,x+1/4
24 z+1/4,y+3/4,-x+3/4
 
loop_
_atom_site_label
_atom_site_type_symbol
_atom_site_symmetry_multiplicity
_atom_site_Wyckoff_label
_atom_site_fract_x
_atom_site_fract_y
_atom_site_fract_z
_atom_site_occupancy
Li1 Li 8 c 0.29300 0.29300 0.29300 1.0
Pt1 Pt 12 d 0.12500 0.30790 -0.05790 1.0
B1 B 4 b 0.62500 0.62500 0.62500 1.0
 

