# CIF file
# This is a cif file prepared for use with the openmaterialsdb.se
#
# The cif file was imported from the Crystallography Open Database (COD)
# http://www.crystallography.net/
# based on data placed in the public domain by the contributors.
#
# The original file in cod had 
#COD-MD5: b37eb8de047fb7f10b1068334a15151a
#
# It was then processed with the FINDSYM tool by
# Harold T. Stokes, Branton J. Campbell, Dorian M. Hatch
# Brigham Young University, Provo, Utah, USA
# which was used to update the structure information.
#
# The original header in COD and relevant COD data follows:
#------------------------------------------------------------------------------
#$Date: 2014-07-11 14:35:18 +0000 (Fri, 11 Jul 2014) $
#$Revision: 120071 $
#$URL: file:///home/coder/svn-repositories/cod/cif/1/01/01/1010152.cif $
#------------------------------------------------------------------------------
data_1010152
_chemical_name_systematic          'Aluminium antimonide'
_publ_section_title
;
The Atomic Structure of Two Intermetallic Compounds
;
loop_
_publ_author_name
  'Owen, E A'
  'Preston, G D'
_journal_name_full                 'Proceedings of the Physical Society, London'
_journal_coden_ASTM                PPSOAU
_journal_volume                    36
_journal_year                      1924
_journal_page_first                341
_journal_page_last                 348
_exptl_crystal_density_meas        4.34
_cod_database_code 1010152
_journal_paper_doi 10.1088/1478-7814/36/1/339

#
# Data extracted using the FINDSYM utility follows
#
 
_audit_creation_method FINDSYM
 
_symmetry_space_group_name_H-M "F -4 3 m"
_symmetry_space_group_name_Hall 'F -4 2 3'
_[local]_omdb_cod_original_Hall 'F -4 2 3'
_symmetry_Int_Tables_number 216
 
_cell_length_a    6.12600
_cell_length_b    6.12600
_cell_length_c    6.12600
_cell_angle_alpha 90.00000
_cell_angle_beta  90.00000
_cell_angle_gamma 90.00000
 
loop_
_space_group_symop_id
_space_group_symop_operation_xyz
1 x,y,z
2 x,-y,-z
3 -x,y,-z
4 -x,-y,z
5 y,z,x
6 y,-z,-x
7 -y,z,-x
8 -y,-z,x
9 z,x,y
10 z,-x,-y
11 -z,x,-y
12 -z,-x,y
13 y,x,z
14 y,-x,-z
15 -y,x,-z
16 -y,-x,z
17 x,z,y
18 x,-z,-y
19 -x,z,-y
20 -x,-z,y
21 z,y,x
22 z,-y,-x
23 -z,y,-x
24 -z,-y,x
25 x,y+1/2,z+1/2
26 x,-y+1/2,-z+1/2
27 -x,y+1/2,-z+1/2
28 -x,-y+1/2,z+1/2
29 y,z+1/2,x+1/2
30 y,-z+1/2,-x+1/2
31 -y,z+1/2,-x+1/2
32 -y,-z+1/2,x+1/2
33 z,x+1/2,y+1/2
34 z,-x+1/2,-y+1/2
35 -z,x+1/2,-y+1/2
36 -z,-x+1/2,y+1/2
37 y,x+1/2,z+1/2
38 y,-x+1/2,-z+1/2
39 -y,x+1/2,-z+1/2
40 -y,-x+1/2,z+1/2
41 x,z+1/2,y+1/2
42 x,-z+1/2,-y+1/2
43 -x,z+1/2,-y+1/2
44 -x,-z+1/2,y+1/2
45 z,y+1/2,x+1/2
46 z,-y+1/2,-x+1/2
47 -z,y+1/2,-x+1/2
48 -z,-y+1/2,x+1/2
49 x+1/2,y,z+1/2
50 x+1/2,-y,-z+1/2
51 -x+1/2,y,-z+1/2
52 -x+1/2,-y,z+1/2
53 y+1/2,z,x+1/2
54 y+1/2,-z,-x+1/2
55 -y+1/2,z,-x+1/2
56 -y+1/2,-z,x+1/2
57 z+1/2,x,y+1/2
58 z+1/2,-x,-y+1/2
59 -z+1/2,x,-y+1/2
60 -z+1/2,-x,y+1/2
61 y+1/2,x,z+1/2
62 y+1/2,-x,-z+1/2
63 -y+1/2,x,-z+1/2
64 -y+1/2,-x,z+1/2
65 x+1/2,z,y+1/2
66 x+1/2,-z,-y+1/2
67 -x+1/2,z,-y+1/2
68 -x+1/2,-z,y+1/2
69 z+1/2,y,x+1/2
70 z+1/2,-y,-x+1/2
71 -z+1/2,y,-x+1/2
72 -z+1/2,-y,x+1/2
73 x+1/2,y+1/2,z
74 x+1/2,-y+1/2,-z
75 -x+1/2,y+1/2,-z
76 -x+1/2,-y+1/2,z
77 y+1/2,z+1/2,x
78 y+1/2,-z+1/2,-x
79 -y+1/2,z+1/2,-x
80 -y+1/2,-z+1/2,x
81 z+1/2,x+1/2,y
82 z+1/2,-x+1/2,-y
83 -z+1/2,x+1/2,-y
84 -z+1/2,-x+1/2,y
85 y+1/2,x+1/2,z
86 y+1/2,-x+1/2,-z
87 -y+1/2,x+1/2,-z
88 -y+1/2,-x+1/2,z
89 x+1/2,z+1/2,y
90 x+1/2,-z+1/2,-y
91 -x+1/2,z+1/2,-y
92 -x+1/2,-z+1/2,y
93 z+1/2,y+1/2,x
94 z+1/2,-y+1/2,-x
95 -z+1/2,y+1/2,-x
96 -z+1/2,-y+1/2,x
 
loop_
_atom_site_label
_atom_site_type_symbol
_atom_site_symmetry_multiplicity
_atom_site_Wyckoff_label
_atom_site_fract_x
_atom_site_fract_y
_atom_site_fract_z
_atom_site_occupancy
Al1 Al 4 c 0.25000 0.25000 0.25000 1.0
Sb1 Sb 4 a 0.00000 0.00000 0.00000 1.0
 

