# CIF file
# This is a cif file prepared for use with the openmaterialsdb.se
#
# The cif file was imported from the Crystallography Open Database (COD)
# http://www.crystallography.net/
# based on data placed in the public domain by the contributors.
#
# The original file in cod had 
#COD-MD5: fb3209d0a106754d3e32d2dc43b65344
#
# It was then processed with the FINDSYM tool by
# Harold T. Stokes, Branton J. Campbell, Dorian M. Hatch
# Brigham Young University, Provo, Utah, USA
# which was used to update the structure information.
#
# The original header in COD and relevant COD data follows:
#------------------------------------------------------------------------------
#$Date: 2014-07-12 08:06:43 +0000 (Sat, 12 Jul 2014) $
#$Revision: 120115 $
#$URL: file:///home/coder/svn-repositories/cod/cif/9/01/24/9012484.cif $
#------------------------------------------------------------------------------
data_9012484
loop_
_publ_author_name
'Bosio, L.'
_publ_section_title
;
 Crystal structures of Ga(II) and Ga(III)
 Loclailty: synthetic
 Sample: at P = 2.6 GPa, T = 313 K
 Note: structure known as Ga(II) phase
;
_journal_name_full               'Journal of Chemical Physics'
_journal_page_first              1221
_journal_page_last               1223
_journal_volume                  68
_journal_year                    1978
_chemical_name_common            Gallium
_diffrn_ambient_pressure         2.6e+06
_diffrn_ambient_temperature      313
_exptl_crystal_density_diffrn    6.592
_cod_database_code               9012484
_journal_paper_doi 10.1063/1.435841

#
# Data extracted using the FINDSYM utility follows
#
 
_audit_creation_method FINDSYM
 
_symmetry_space_group_name_H-M "I -4 3 d"
_symmetry_space_group_name_Hall 'I -4bd 2c 3'
_[local]_omdb_cod_original_Hall 'I -4bd 2c 3'
_symmetry_Int_Tables_number 220
 
_cell_length_a    5.95100
_cell_length_b    5.95100
_cell_length_c    5.95100
_cell_angle_alpha 90.00000
_cell_angle_beta  90.00000
_cell_angle_gamma 90.00000
 
loop_
_space_group_symop_id
_space_group_symop_operation_xyz
1 x,y,z
2 x,-y,-z+1/2
3 -x+1/2,y,-z
4 -x,-y+1/2,z
5 y,z,x
6 y,-z,-x+1/2
7 -y+1/2,z,-x
8 -y,-z+1/2,x
9 z,x,y
10 z,-x,-y+1/2
11 -z+1/2,x,-y
12 -z,-x+1/2,y
13 y+1/4,x+1/4,z+1/4
14 y+1/4,-x+3/4,-z+1/4
15 -y+1/4,x+1/4,-z+3/4
16 -y+3/4,-x+1/4,z+1/4
17 x+1/4,z+1/4,y+1/4
18 x+1/4,-z+3/4,-y+1/4
19 -x+1/4,z+1/4,-y+3/4
20 -x+3/4,-z+1/4,y+1/4
21 z+1/4,y+1/4,x+1/4
22 z+1/4,-y+3/4,-x+1/4
23 -z+1/4,y+1/4,-x+3/4
24 -z+3/4,-y+1/4,x+1/4
25 x+1/2,y+1/2,z+1/2
26 x+1/2,-y+1/2,-z
27 -x,y+1/2,-z+1/2
28 -x+1/2,-y,z+1/2
29 y+1/2,z+1/2,x+1/2
30 y+1/2,-z+1/2,-x
31 -y,z+1/2,-x+1/2
32 -y+1/2,-z,x+1/2
33 z+1/2,x+1/2,y+1/2
34 z+1/2,-x+1/2,-y
35 -z,x+1/2,-y+1/2
36 -z+1/2,-x,y+1/2
37 y+3/4,x+3/4,z+3/4
38 y+3/4,-x+1/4,-z+3/4
39 -y+3/4,x+3/4,-z+1/4
40 -y+1/4,-x+3/4,z+3/4
41 x+3/4,z+3/4,y+3/4
42 x+3/4,-z+1/4,-y+3/4
43 -x+3/4,z+3/4,-y+1/4
44 -x+1/4,-z+3/4,y+3/4
45 z+3/4,y+3/4,x+3/4
46 z+3/4,-y+1/4,-x+3/4
47 -z+3/4,y+3/4,-x+1/4
48 -z+1/4,-y+3/4,x+3/4
 
loop_
_atom_site_label
_atom_site_type_symbol
_atom_site_symmetry_multiplicity
_atom_site_Wyckoff_label
_atom_site_fract_x
_atom_site_fract_y
_atom_site_fract_z
_atom_site_occupancy
Ga1 Ga 12 a 0.37500 0.00000 0.25000 1.0
 

