# CIF file
# This is a cif file prepared for use with the openmaterialsdb.se
#
# The cif file was imported from the Crystallography Open Database (COD)
# http://www.crystallography.net/
# based on data placed in the public domain by the contributors.
#
# The original file in cod had 
#COD-MD5: 51f9ffd99c4c6f42053661166304a245
#
# It was then processed with the FINDSYM tool by
# Harold T. Stokes, Branton J. Campbell, Dorian M. Hatch
# Brigham Young University, Provo, Utah, USA
# which was used to update the structure information.
#
# The original header in COD and relevant COD data follows:
#------------------------------------------------------------------------------
#$Date: 2013-05-05 14:21:46 +0000 (Sun, 05 May 2013) $
#$Revision: 85285 $
#$URL: file:///home/coder/svn-repositories/cod/cif/9/01/30/9013008.cif $
#------------------------------------------------------------------------------
data_9013008
loop_
_publ_author_name
'Akhtar, D.'
'Vankar, V. D.'
'Goel, T. C.'
'Chopra, K. L.'
_publ_section_title
;
 Metastable structures of liquid-quenched and vapour-quenched antimony films
 Locality: synthetic
 Note: liquid-quenched specimen
;
_journal_name_full               'Journal of Materials Science'
_journal_page_first              988
_journal_page_last               994
_journal_volume                  14
_journal_year                    1979
_chemical_name_mineral           Antimony
_exptl_crystal_density_diffrn    6.407
_[local]_cod_cif_authors_sg_H-M  'P m 3 m'
_cod_database_code               9013008

#
# Data extracted using the FINDSYM utility follows
#
 
_audit_creation_method FINDSYM
 
_symmetry_space_group_name_H-M "P 4/m -3 2/m"
_symmetry_space_group_name_Hall '-P 4 2 3'
_[local]_omdb_cod_original_Hall '-P 4 2 3'
_symmetry_Int_Tables_number 221
 
_cell_length_a    3.16000
_cell_length_b    3.16000
_cell_length_c    3.16000
_cell_angle_alpha 90.00000
_cell_angle_beta  90.00000
_cell_angle_gamma 90.00000
 
loop_
_space_group_symop_id
_space_group_symop_operation_xyz
1 x,y,z
2 x,-y,-z
3 -x,y,-z
4 -x,-y,z
5 y,z,x
6 y,-z,-x
7 -y,z,-x
8 -y,-z,x
9 z,x,y
10 z,-x,-y
11 -z,x,-y
12 -z,-x,y
13 -y,-x,-z
14 -y,x,z
15 y,-x,z
16 y,x,-z
17 -x,-z,-y
18 -x,z,y
19 x,-z,y
20 x,z,-y
21 -z,-y,-x
22 -z,y,x
23 z,-y,x
24 z,y,-x
25 -x,-y,-z
26 -x,y,z
27 x,-y,z
28 x,y,-z
29 -y,-z,-x
30 -y,z,x
31 y,-z,x
32 y,z,-x
33 -z,-x,-y
34 -z,x,y
35 z,-x,y
36 z,x,-y
37 y,x,z
38 y,-x,-z
39 -y,x,-z
40 -y,-x,z
41 x,z,y
42 x,-z,-y
43 -x,z,-y
44 -x,-z,y
45 z,y,x
46 z,-y,-x
47 -z,y,-x
48 -z,-y,x
 
loop_
_atom_site_label
_atom_site_type_symbol
_atom_site_symmetry_multiplicity
_atom_site_Wyckoff_label
_atom_site_fract_x
_atom_site_fract_y
_atom_site_fract_z
_atom_site_occupancy
Sb1 Sb 1 a 0.00000 0.00000 0.00000 1.0
 

