# CIF file
# This is a cif file prepared for use with the openmaterialsdb.se
#
# The cif file was imported from the Crystallography Open Database (COD)
# http://www.crystallography.net/
# based on data placed in the public domain by the contributors.
#
# The original file in cod had 
#COD-MD5: 95e8bfdb4efc661b63cba592f27c7351
#
# It was then processed with the FINDSYM tool by
# Harold T. Stokes, Branton J. Campbell, Dorian M. Hatch
# Brigham Young University, Provo, Utah, USA
# which was used to update the structure information.
#
# The original header in COD and relevant COD data follows:
#------------------------------------------------------------------------------
#$Date: 2014-07-11 14:35:18 +0000 (Fri, 11 Jul 2014) $
#$Revision: 120071 $
#$URL: file:///home/coder/svn-repositories/cod/cif/1/51/04/1510461.cif $
#------------------------------------------------------------------------------
data_1510461
loop_
_publ_author_name
'Isonaga, T.'
'Ishikawa, K.'
'Wakita, S.'
'Suzuki, Y.'
_publ_section_title
;
 Structure and electrical properties of Au2 S
;
_journal_name_full               'Solid State Ionics'
_journal_page_first              60
_journal_page_last               66
_journal_volume                  79
_journal_year                    1995
_chemical_name_systematic        'Au2 S'
_citation_journal_id_ASTM        SSIOD3
_[local]_cod_data_source_file    gold_556.cif
_[local]_cod_data_source_block   Au2S1
_[local]_cod_cif_authors_sg_Hall '-P 4bc 2bc 3 (x+1/4,y+1/4,z+1/4)'
_[local]_cod_chemical_formula_sum_orig 'Au2 S1'
_cod_original_cell_volume        126.5491
_cod_database_code               1510461
_journal_paper_doi 10.1016/0167-2738(95)00030-A

#
# Data extracted using the FINDSYM utility follows
#
 
_audit_creation_method FINDSYM
 
_symmetry_space_group_name_H-M "P 42/n -3 2/m (origin choice 2)"
_symmetry_space_group_name_Hall '-P 4bc 2bc 3'
_[local]_omdb_cod_original_Hall 'P 4n 2 3 -1n'
_symmetry_Int_Tables_number 224
 
_cell_length_a    5.02057
_cell_length_b    5.02057
_cell_length_c    5.02057
_cell_angle_alpha 90.00000
_cell_angle_beta  90.00000
_cell_angle_gamma 90.00000
 
loop_
_space_group_symop_id
_space_group_symop_operation_xyz
1 x,y,z
2 x,-y+1/2,-z+1/2
3 -x+1/2,y,-z+1/2
4 -x+1/2,-y+1/2,z
5 y,z,x
6 y,-z+1/2,-x+1/2
7 -y+1/2,z,-x+1/2
8 -y+1/2,-z+1/2,x
9 z,x,y
10 z,-x+1/2,-y+1/2
11 -z+1/2,x,-y+1/2
12 -z+1/2,-x+1/2,y
13 -y,-x,-z
14 -y,x+1/2,z+1/2
15 y+1/2,-x,z+1/2
16 y+1/2,x+1/2,-z
17 -x,-z,-y
18 -x,z+1/2,y+1/2
19 x+1/2,-z,y+1/2
20 x+1/2,z+1/2,-y
21 -z,-y,-x
22 -z,y+1/2,x+1/2
23 z+1/2,-y,x+1/2
24 z+1/2,y+1/2,-x
25 -x,-y,-z
26 -x,y+1/2,z+1/2
27 x+1/2,-y,z+1/2
28 x+1/2,y+1/2,-z
29 -y,-z,-x
30 -y,z+1/2,x+1/2
31 y+1/2,-z,x+1/2
32 y+1/2,z+1/2,-x
33 -z,-x,-y
34 -z,x+1/2,y+1/2
35 z+1/2,-x,y+1/2
36 z+1/2,x+1/2,-y
37 y,x,z
38 y,-x+1/2,-z+1/2
39 -y+1/2,x,-z+1/2
40 -y+1/2,-x+1/2,z
41 x,z,y
42 x,-z+1/2,-y+1/2
43 -x+1/2,z,-y+1/2
44 -x+1/2,-z+1/2,y
45 z,y,x
46 z,-y+1/2,-x+1/2
47 -z+1/2,y,-x+1/2
48 -z+1/2,-y+1/2,x
 
loop_
_atom_site_label
_atom_site_type_symbol
_atom_site_symmetry_multiplicity
_atom_site_Wyckoff_label
_atom_site_fract_x
_atom_site_fract_y
_atom_site_fract_z
_atom_site_occupancy
S1 S 2 a 0.25000 0.25000 0.25000 1.0
Au1 Au 4 b 0.00000 0.00000 0.00000 1.0
 

