# CIF file
# This is a cif file prepared for use with the openmaterialsdb.se
#
# The cif file was imported from the Crystallography Open Database (COD)
# http://www.crystallography.net/
# based on data placed in the public domain by the contributors.
#
# The original file in cod had 
#COD-MD5: 2ba2c64b1dcf45cd38534f648f3425db
#
# It was then processed with the FINDSYM tool by
# Harold T. Stokes, Branton J. Campbell, Dorian M. Hatch
# Brigham Young University, Provo, Utah, USA
# which was used to update the structure information.
#
# The original header in COD and relevant COD data follows:
#------------------------------------------------------------------------------
#$Date: 2014-07-11 19:43:15 +0000 (Fri, 11 Jul 2014) $
#$Revision: 120076 $
#$URL: file:///home/coder/svn-repositories/cod/cif/4/10/49/4104917.cif $
#------------------------------------------------------------------------------
data_4104917
loop_
_publ_author_name
'May Nyman'
'Mark A. Rodriguez'
'Lauren E. Shea-Rohwer'
'James E. Martin'
'Paula P. Provencio'
_publ_section_title
;
 Highly Versatile Rare Earth Tantalate Pyrochlore Nanophosphors
;
_journal_name_full               'Journal of the American Chemical Society'
_journal_page_first              11652
_journal_page_last               11653
_journal_volume                  131
_journal_year                    2009
_computing_structure_refinement  GSAS
_diffrn_radiation_polarisn_ratio 0.5
_diffrn_radiation_probe          x-ray
_pd_block_id                     2009-06-30T16:13|KYTA2O7-SI_phase2|||
_pd_calc_method                  'Rietveld Refinement'
_pd_meas_2theta_range_inc        0.02
_pd_meas_2theta_range_max        90.0
_pd_meas_2theta_range_min        5.0
_pd_phase_name                   Si
_pd_proc_2theta_range_inc        0.02
_pd_proc_2theta_range_max        90.0
_pd_proc_2theta_range_min        5.0
_pd_proc_info_datetime           2009-06-30T16:13:11
_pd_proc_ls_background_function
;   GSAS Background function number 2 with  4 terms.
 Cosine Fourier series
      1:    148.906     2:    186.693     3:   -22.6279     4:    49.5117    
;
_pd_proc_ls_prof_R_factor        0.0925
_pd_proc_ls_prof_wR_expected     0.0485
_pd_proc_ls_prof_wR_factor       0.1265
_refine_ls_goodness_of_fit_all   2.61
_refine_ls_matrix_type           full
_refine_ls_number_parameters     15
_refine_ls_number_restraints     0
_refine_ls_R_Fsqd_factor         0.05981
_refine_ls_shift/su_max          0.08
_refine_ls_shift/su_mean         0.01
_[local]_cod_data_source_file    ja903823w_si_002_2.cif
_[local]_cod_data_source_block   KYTA2O7-SI_phase_2
_[local]_cod_cif_authors_sg_H-M  'F d -3 m'
_cod_depositor_comments
;
The following automatic conversions were performed:

'_geom_bond_publ_flag' value 'N' changed to 'n' according to the
built-in table from CIF Core dictionary named 'cif_core.dic' version
2.4.1 from 2010-06-29 (4 times).

'_geom_angle_publ_flag' value 'N'
changed to 'n' according to the built-in table from CIF Core
dictionary named 'cif_core.dic' version 2.4.1 from 2010-06-29 (6
times).

Automatic conversion script
Id: cif_fix_values 1715 2011-07-08 13:25:40Z adriana 
;
_cod_original_cell_volume        160.18088
_cod_database_code               4104917
loop_
_diffrn_radiation_wavelength
_diffrn_radiation_wavelength_wt
_diffrn_radiation_type
_diffrn_radiation_wavelength_id
1.540500 1.000 K\a~1~ 1
1.544300 0.500 K\a~2~ 2
loop_
_pd_block_diffractogram_id
2009-06-30T16:13|KYTA2O7-SI_H_01||
loop_
_pd_phase_id
_pd_phase_block_id
_pd_phase_mass_%
_pd_proc_ls_profile_function
_pd_proc_ls_peak_cutoff
2 2009-06-30T16:13|KYTA2O7-SI_phase2||| 15.1(4)
;
 CW Profile function number 2 with  18 terms
 Profile coefficients for Simpson's rule integration of pseudovoigt function
 C.J. Howard (1982). J. Appl. Cryst.,15,615-620.
 P. Thompson, D.E. Cox & J.B. Hastings (1987). J. Appl. Cryst.,20,79-83.
 Peak tails are ignored  where the intensity is below 0.0002 times the peak
   Aniso. broadening axis   0.0   0.0   1.0
;
0.00020
_journal_paper_doi 10.1021/ja903823w

#
# Data extracted using the FINDSYM utility follows
#
 
_audit_creation_method FINDSYM
 
_symmetry_space_group_name_H-M "F 41/d -3 2/m (origin choice 2)"
_symmetry_space_group_name_Hall '-F 4vw 2vw 3'
_[local]_omdb_cod_original_Hall '-F 4vw 2vw 3'
_symmetry_Int_Tables_number 227
 
_cell_length_a    5.43088
_cell_length_b    5.43088
_cell_length_c    5.43088
_cell_angle_alpha 90.00000
_cell_angle_beta  90.00000
_cell_angle_gamma 90.00000
 
loop_
_space_group_symop_id
_space_group_symop_operation_xyz
1 x,y,z
2 x,-y+1/4,-z+1/4
3 -x+1/4,y,-z+1/4
4 -x+1/4,-y+1/4,z
5 y,z,x
6 y,-z+1/4,-x+1/4
7 -y+1/4,z,-x+1/4
8 -y+1/4,-z+1/4,x
9 z,x,y
10 z,-x+1/4,-y+1/4
11 -z+1/4,x,-y+1/4
12 -z+1/4,-x+1/4,y
13 -y,-x,-z
14 -y,x+1/4,z+1/4
15 y+1/4,-x,z+1/4
16 y+1/4,x+1/4,-z
17 -x,-z,-y
18 -x,z+1/4,y+1/4
19 x+1/4,-z,y+1/4
20 x+1/4,z+1/4,-y
21 -z,-y,-x
22 -z,y+1/4,x+1/4
23 z+1/4,-y,x+1/4
24 z+1/4,y+1/4,-x
25 -x,-y,-z
26 -x,y+1/4,z+1/4
27 x+1/4,-y,z+1/4
28 x+1/4,y+1/4,-z
29 -y,-z,-x
30 -y,z+1/4,x+1/4
31 y+1/4,-z,x+1/4
32 y+1/4,z+1/4,-x
33 -z,-x,-y
34 -z,x+1/4,y+1/4
35 z+1/4,-x,y+1/4
36 z+1/4,x+1/4,-y
37 y,x,z
38 y,-x+1/4,-z+1/4
39 -y+1/4,x,-z+1/4
40 -y+1/4,-x+1/4,z
41 x,z,y
42 x,-z+1/4,-y+1/4
43 -x+1/4,z,-y+1/4
44 -x+1/4,-z+1/4,y
45 z,y,x
46 z,-y+1/4,-x+1/4
47 -z+1/4,y,-x+1/4
48 -z+1/4,-y+1/4,x
49 x,y+1/2,z+1/2
50 x,-y+3/4,-z+3/4
51 -x+1/4,y+1/2,-z+3/4
52 -x+1/4,-y+3/4,z+1/2
53 y,z+1/2,x+1/2
54 y,-z+3/4,-x+3/4
55 -y+1/4,z+1/2,-x+3/4
56 -y+1/4,-z+3/4,x+1/2
57 z,x+1/2,y+1/2
58 z,-x+3/4,-y+3/4
59 -z+1/4,x+1/2,-y+3/4
60 -z+1/4,-x+3/4,y+1/2
61 -y,-x+1/2,-z+1/2
62 -y,x+3/4,z+3/4
63 y+1/4,-x+1/2,z+3/4
64 y+1/4,x+3/4,-z+1/2
65 -x,-z+1/2,-y+1/2
66 -x,z+3/4,y+3/4
67 x+1/4,-z+1/2,y+3/4
68 x+1/4,z+3/4,-y+1/2
69 -z,-y+1/2,-x+1/2
70 -z,y+3/4,x+3/4
71 z+1/4,-y+1/2,x+3/4
72 z+1/4,y+3/4,-x+1/2
73 -x,-y+1/2,-z+1/2
74 -x,y+3/4,z+3/4
75 x+1/4,-y+1/2,z+3/4
76 x+1/4,y+3/4,-z+1/2
77 -y,-z+1/2,-x+1/2
78 -y,z+3/4,x+3/4
79 y+1/4,-z+1/2,x+3/4
80 y+1/4,z+3/4,-x+1/2
81 -z,-x+1/2,-y+1/2
82 -z,x+3/4,y+3/4
83 z+1/4,-x+1/2,y+3/4
84 z+1/4,x+3/4,-y+1/2
85 y,x+1/2,z+1/2
86 y,-x+3/4,-z+3/4
87 -y+1/4,x+1/2,-z+3/4
88 -y+1/4,-x+3/4,z+1/2
89 x,z+1/2,y+1/2
90 x,-z+3/4,-y+3/4
91 -x+1/4,z+1/2,-y+3/4
92 -x+1/4,-z+3/4,y+1/2
93 z,y+1/2,x+1/2
94 z,-y+3/4,-x+3/4
95 -z+1/4,y+1/2,-x+3/4
96 -z+1/4,-y+3/4,x+1/2
97 x+1/2,y,z+1/2
98 x+1/2,-y+1/4,-z+3/4
99 -x+3/4,y,-z+3/4
100 -x+3/4,-y+1/4,z+1/2
101 y+1/2,z,x+1/2
102 y+1/2,-z+1/4,-x+3/4
103 -y+3/4,z,-x+3/4
104 -y+3/4,-z+1/4,x+1/2
105 z+1/2,x,y+1/2
106 z+1/2,-x+1/4,-y+3/4
107 -z+3/4,x,-y+3/4
108 -z+3/4,-x+1/4,y+1/2
109 -y+1/2,-x,-z+1/2
110 -y+1/2,x+1/4,z+3/4
111 y+3/4,-x,z+3/4
112 y+3/4,x+1/4,-z+1/2
113 -x+1/2,-z,-y+1/2
114 -x+1/2,z+1/4,y+3/4
115 x+3/4,-z,y+3/4
116 x+3/4,z+1/4,-y+1/2
117 -z+1/2,-y,-x+1/2
118 -z+1/2,y+1/4,x+3/4
119 z+3/4,-y,x+3/4
120 z+3/4,y+1/4,-x+1/2
121 -x+1/2,-y,-z+1/2
122 -x+1/2,y+1/4,z+3/4
123 x+3/4,-y,z+3/4
124 x+3/4,y+1/4,-z+1/2
125 -y+1/2,-z,-x+1/2
126 -y+1/2,z+1/4,x+3/4
127 y+3/4,-z,x+3/4
128 y+3/4,z+1/4,-x+1/2
129 -z+1/2,-x,-y+1/2
130 -z+1/2,x+1/4,y+3/4
131 z+3/4,-x,y+3/4
132 z+3/4,x+1/4,-y+1/2
133 y+1/2,x,z+1/2
134 y+1/2,-x+1/4,-z+3/4
135 -y+3/4,x,-z+3/4
136 -y+3/4,-x+1/4,z+1/2
137 x+1/2,z,y+1/2
138 x+1/2,-z+1/4,-y+3/4
139 -x+3/4,z,-y+3/4
140 -x+3/4,-z+1/4,y+1/2
141 z+1/2,y,x+1/2
142 z+1/2,-y+1/4,-x+3/4
143 -z+3/4,y,-x+3/4
144 -z+3/4,-y+1/4,x+1/2
145 x+1/2,y+1/2,z
146 x+1/2,-y+3/4,-z+1/4
147 -x+3/4,y+1/2,-z+1/4
148 -x+3/4,-y+3/4,z
149 y+1/2,z+1/2,x
150 y+1/2,-z+3/4,-x+1/4
151 -y+3/4,z+1/2,-x+1/4
152 -y+3/4,-z+3/4,x
153 z+1/2,x+1/2,y
154 z+1/2,-x+3/4,-y+1/4
155 -z+3/4,x+1/2,-y+1/4
156 -z+3/4,-x+3/4,y
157 -y+1/2,-x+1/2,-z
158 -y+1/2,x+3/4,z+1/4
159 y+3/4,-x+1/2,z+1/4
160 y+3/4,x+3/4,-z
161 -x+1/2,-z+1/2,-y
162 -x+1/2,z+3/4,y+1/4
163 x+3/4,-z+1/2,y+1/4
164 x+3/4,z+3/4,-y
165 -z+1/2,-y+1/2,-x
166 -z+1/2,y+3/4,x+1/4
167 z+3/4,-y+1/2,x+1/4
168 z+3/4,y+3/4,-x
169 -x+1/2,-y+1/2,-z
170 -x+1/2,y+3/4,z+1/4
171 x+3/4,-y+1/2,z+1/4
172 x+3/4,y+3/4,-z
173 -y+1/2,-z+1/2,-x
174 -y+1/2,z+3/4,x+1/4
175 y+3/4,-z+1/2,x+1/4
176 y+3/4,z+3/4,-x
177 -z+1/2,-x+1/2,-y
178 -z+1/2,x+3/4,y+1/4
179 z+3/4,-x+1/2,y+1/4
180 z+3/4,x+3/4,-y
181 y+1/2,x+1/2,z
182 y+1/2,-x+3/4,-z+1/4
183 -y+3/4,x+1/2,-z+1/4
184 -y+3/4,-x+3/4,z
185 x+1/2,z+1/2,y
186 x+1/2,-z+3/4,-y+1/4
187 -x+3/4,z+1/2,-y+1/4
188 -x+3/4,-z+3/4,y
189 z+1/2,y+1/2,x
190 z+1/2,-y+3/4,-x+1/4
191 -z+3/4,y+1/2,-x+1/4
192 -z+3/4,-y+3/4,x
 
loop_
_atom_site_label
_atom_site_type_symbol
_atom_site_symmetry_multiplicity
_atom_site_Wyckoff_label
_atom_site_fract_x
_atom_site_fract_y
_atom_site_fract_z
_atom_site_occupancy
Si1 Si 8 a 0.12500 0.12500 0.12500 1.0
 

