# CIF file
# This is a cif file prepared for use with the openmaterialsdb.se
#
# The cif file was imported from the Crystallography Open Database (COD)
# http://www.crystallography.net/
# based on data placed in the public domain by the contributors.
#
# The original file in cod had 
#COD-MD5: da30c43ede55501cc7dc08bc857335a2
#
# It was then processed with the FINDSYM tool by
# Harold T. Stokes, Branton J. Campbell, Dorian M. Hatch
# Brigham Young University, Provo, Utah, USA
# which was used to update the structure information.
#
# The original header in COD and relevant COD data follows:
#------------------------------------------------------------------------------
#$Date: 2014-03-15 11:45:36 +0000 (Sat, 15 Mar 2014) $
#$Revision: 106525 $
#$URL: file:///home/coder/svn-repositories/cod/cif/7/10/58/7105832.cif $
#------------------------------------------------------------------------------
data_7105832
loop_
_publ_author_name
'Tetsuya Yamada'
'Goro Maruta'
'Sadamu Takeda'
_publ_section_title
;
 Reversible Solid State Structural Conversion between Three-dimensional
 Network and One-dimensional Chain of Cu(II) Triazole Coordination
 Polymers in Acidic/Basic- Suspensions or Vapors
;
_journal_name_full               Chem.Commun.
_journal_page_first              653
_journal_volume                  47
_journal_year                    2011
_computing_cell_refinement       PROCESS-AUTO
_computing_data_collection       PROCESS-AUTO
_computing_data_reduction        CrystalStructure
_computing_publication_material  'CrystalStructure 3.8'
_computing_structure_refinement  CRYSTALS
_computing_structure_solution    SHELXS97
_diffrn_detector_area_resol_mean 10.00
_diffrn_measured_fraction_theta_full 1.034
_diffrn_measured_fraction_theta_max 1.034
_diffrn_measurement_device_type  IPDSC
_diffrn_measurement_method       \w/2\q
_diffrn_radiation_monochromator  Si-111
_diffrn_radiation_type           Sr
_diffrn_radiation_wavelength     0.6884
_diffrn_reflns_av_R_equivalents  0.04
_diffrn_reflns_limit_h_max       28
_diffrn_reflns_limit_h_min       0
_diffrn_reflns_limit_k_max       34
_diffrn_reflns_limit_k_min       0
_diffrn_reflns_limit_l_max       49
_diffrn_reflns_limit_l_min       6
_diffrn_reflns_number            21348
_diffrn_reflns_theta_full        55.0
_diffrn_reflns_theta_max         55.0
_exptl_absorpt_coefficient_mu    7.60
_exptl_absorpt_correction_T_max  0.464
_exptl_absorpt_correction_T_min  0.050
_exptl_absorpt_correction_type   multi-scan
_exptl_absorpt_process_details
;
_exptl_absorpt_correction_T_min 0.464
;
_exptl_crystal_colour            blue
_exptl_crystal_density_diffrn    2.3899
_exptl_crystal_density_method    'not measured'
_exptl_crystal_description       block
_exptl_crystal_F_000             9988.95
_exptl_crystal_size_max          0.20
_exptl_crystal_size_mid          0.20
_exptl_crystal_size_min          0.10
_refine_diff_density_max         36.53
_refine_diff_density_min         -34.56
_refine_ls_extinction_method     none
_refine_ls_goodness_of_fit_ref   0.922
_refine_ls_hydrogen_treatment    undef
_refine_ls_number_parameters     52
_refine_ls_number_reflns         15286
_refine_ls_R_factor_all          0.0959
_refine_ls_R_factor_gt           0.0841
_refine_ls_shift/su_max          0.035785
_refine_ls_structure_factor_coef F
_refine_ls_weighting_details
;
Chebychev polynomial with 3 parameters (Carruthers & Watkin, 1979)
25.0 -3.23 20.4
;
_refine_ls_weighting_scheme      calc
_refine_ls_wR_factor_gt          0.0993
_refine_ls_wR_factor_ref         0.1415
_reflns_number_gt                15228
_reflns_number_total             19123
_reflns_threshold_expression     F^2^>2.0\s(F^2^)
_[local]_cod_data_source_file    C0CC04293E.TXT
_[local]_cod_data_source_block   2
_[local]_cod_cif_authors_sg_H-M  Fd-3c
_[local]_cod_cif_authors_sg_Hall -F4cvw2vw
_[local]_cod_chemical_formula_sum_orig 'C6 H19 Br2 Cu3 N9 O7 '
_cod_database_code               7105832

#
# Data extracted using the FINDSYM utility follows
#
 
_audit_creation_method FINDSYM
 
_symmetry_space_group_name_H-M "F 41/d -3 2/c (origin choice 2)"
_symmetry_space_group_name_Hall '-F 4cvw 2vw 3'
_[local]_omdb_cod_original_Hall '-F 4cvw 2vw 3'
_symmetry_Int_Tables_number 228
 
_cell_length_a    24.71900
_cell_length_b    24.71900
_cell_length_c    24.71900
_cell_angle_alpha 90.00000
_cell_angle_beta  90.00000
_cell_angle_gamma 90.00000
 
loop_
_space_group_symop_id
_space_group_symop_operation_xyz
1 x,y,z
2 x,-y+1/4,-z+1/4
3 -x+1/4,y,-z+1/4
4 -x+1/4,-y+1/4,z
5 y,z,x
6 y,-z+1/4,-x+1/4
7 -y+1/4,z,-x+1/4
8 -y+1/4,-z+1/4,x
9 z,x,y
10 z,-x+1/4,-y+1/4
11 -z+1/4,x,-y+1/4
12 -z+1/4,-x+1/4,y
13 -y+1/2,-x+1/2,-z+1/2
14 -y+1/2,x+1/4,z+1/4
15 y+1/4,-x+1/2,z+1/4
16 y+1/4,x+1/4,-z+1/2
17 -x+1/2,-z+1/2,-y+1/2
18 -x+1/2,z+1/4,y+1/4
19 x+1/4,-z+1/2,y+1/4
20 x+1/4,z+1/4,-y+1/2
21 -z+1/2,-y+1/2,-x+1/2
22 -z+1/2,y+1/4,x+1/4
23 z+1/4,-y+1/2,x+1/4
24 z+1/4,y+1/4,-x+1/2
25 -x,-y,-z
26 -x,y+1/4,z+1/4
27 x+1/4,-y,z+1/4
28 x+1/4,y+1/4,-z
29 -y,-z,-x
30 -y,z+1/4,x+1/4
31 y+1/4,-z,x+1/4
32 y+1/4,z+1/4,-x
33 -z,-x,-y
34 -z,x+1/4,y+1/4
35 z+1/4,-x,y+1/4
36 z+1/4,x+1/4,-y
37 y+1/2,x+1/2,z+1/2
38 y+1/2,-x+1/4,-z+1/4
39 -y+1/4,x+1/2,-z+1/4
40 -y+1/4,-x+1/4,z+1/2
41 x+1/2,z+1/2,y+1/2
42 x+1/2,-z+1/4,-y+1/4
43 -x+1/4,z+1/2,-y+1/4
44 -x+1/4,-z+1/4,y+1/2
45 z+1/2,y+1/2,x+1/2
46 z+1/2,-y+1/4,-x+1/4
47 -z+1/4,y+1/2,-x+1/4
48 -z+1/4,-y+1/4,x+1/2
49 x,y+1/2,z+1/2
50 x,-y+3/4,-z+3/4
51 -x+1/4,y+1/2,-z+3/4
52 -x+1/4,-y+3/4,z+1/2
53 y,z+1/2,x+1/2
54 y,-z+3/4,-x+3/4
55 -y+1/4,z+1/2,-x+3/4
56 -y+1/4,-z+3/4,x+1/2
57 z,x+1/2,y+1/2
58 z,-x+3/4,-y+3/4
59 -z+1/4,x+1/2,-y+3/4
60 -z+1/4,-x+3/4,y+1/2
61 -y+1/2,-x,-z
62 -y+1/2,x+3/4,z+3/4
63 y+1/4,-x,z+3/4
64 y+1/4,x+3/4,-z
65 -x+1/2,-z,-y
66 -x+1/2,z+3/4,y+3/4
67 x+1/4,-z,y+3/4
68 x+1/4,z+3/4,-y
69 -z+1/2,-y,-x
70 -z+1/2,y+3/4,x+3/4
71 z+1/4,-y,x+3/4
72 z+1/4,y+3/4,-x
73 -x,-y+1/2,-z+1/2
74 -x,y+3/4,z+3/4
75 x+1/4,-y+1/2,z+3/4
76 x+1/4,y+3/4,-z+1/2
77 -y,-z+1/2,-x+1/2
78 -y,z+3/4,x+3/4
79 y+1/4,-z+1/2,x+3/4
80 y+1/4,z+3/4,-x+1/2
81 -z,-x+1/2,-y+1/2
82 -z,x+3/4,y+3/4
83 z+1/4,-x+1/2,y+3/4
84 z+1/4,x+3/4,-y+1/2
85 y+1/2,x,z
86 y+1/2,-x+3/4,-z+3/4
87 -y+1/4,x,-z+3/4
88 -y+1/4,-x+3/4,z
89 x+1/2,z,y
90 x+1/2,-z+3/4,-y+3/4
91 -x+1/4,z,-y+3/4
92 -x+1/4,-z+3/4,y
93 z+1/2,y,x
94 z+1/2,-y+3/4,-x+3/4
95 -z+1/4,y,-x+3/4
96 -z+1/4,-y+3/4,x
97 x+1/2,y,z+1/2
98 x+1/2,-y+1/4,-z+3/4
99 -x+3/4,y,-z+3/4
100 -x+3/4,-y+1/4,z+1/2
101 y+1/2,z,x+1/2
102 y+1/2,-z+1/4,-x+3/4
103 -y+3/4,z,-x+3/4
104 -y+3/4,-z+1/4,x+1/2
105 z+1/2,x,y+1/2
106 z+1/2,-x+1/4,-y+3/4
107 -z+3/4,x,-y+3/4
108 -z+3/4,-x+1/4,y+1/2
109 -y,-x+1/2,-z
110 -y,x+1/4,z+3/4
111 y+3/4,-x+1/2,z+3/4
112 y+3/4,x+1/4,-z
113 -x,-z+1/2,-y
114 -x,z+1/4,y+3/4
115 x+3/4,-z+1/2,y+3/4
116 x+3/4,z+1/4,-y
117 -z,-y+1/2,-x
118 -z,y+1/4,x+3/4
119 z+3/4,-y+1/2,x+3/4
120 z+3/4,y+1/4,-x
121 -x+1/2,-y,-z+1/2
122 -x+1/2,y+1/4,z+3/4
123 x+3/4,-y,z+3/4
124 x+3/4,y+1/4,-z+1/2
125 -y+1/2,-z,-x+1/2
126 -y+1/2,z+1/4,x+3/4
127 y+3/4,-z,x+3/4
128 y+3/4,z+1/4,-x+1/2
129 -z+1/2,-x,-y+1/2
130 -z+1/2,x+1/4,y+3/4
131 z+3/4,-x,y+3/4
132 z+3/4,x+1/4,-y+1/2
133 y,x+1/2,z
134 y,-x+1/4,-z+3/4
135 -y+3/4,x+1/2,-z+3/4
136 -y+3/4,-x+1/4,z
137 x,z+1/2,y
138 x,-z+1/4,-y+3/4
139 -x+3/4,z+1/2,-y+3/4
140 -x+3/4,-z+1/4,y
141 z,y+1/2,x
142 z,-y+1/4,-x+3/4
143 -z+3/4,y+1/2,-x+3/4
144 -z+3/4,-y+1/4,x
145 x+1/2,y+1/2,z
146 x+1/2,-y+3/4,-z+1/4
147 -x+3/4,y+1/2,-z+1/4
148 -x+3/4,-y+3/4,z
149 y+1/2,z+1/2,x
150 y+1/2,-z+3/4,-x+1/4
151 -y+3/4,z+1/2,-x+1/4
152 -y+3/4,-z+3/4,x
153 z+1/2,x+1/2,y
154 z+1/2,-x+3/4,-y+1/4
155 -z+3/4,x+1/2,-y+1/4
156 -z+3/4,-x+3/4,y
157 -y,-x,-z+1/2
158 -y,x+3/4,z+1/4
159 y+3/4,-x,z+1/4
160 y+3/4,x+3/4,-z+1/2
161 -x,-z,-y+1/2
162 -x,z+3/4,y+1/4
163 x+3/4,-z,y+1/4
164 x+3/4,z+3/4,-y+1/2
165 -z,-y,-x+1/2
166 -z,y+3/4,x+1/4
167 z+3/4,-y,x+1/4
168 z+3/4,y+3/4,-x+1/2
169 -x+1/2,-y+1/2,-z
170 -x+1/2,y+3/4,z+1/4
171 x+3/4,-y+1/2,z+1/4
172 x+3/4,y+3/4,-z
173 -y+1/2,-z+1/2,-x
174 -y+1/2,z+3/4,x+1/4
175 y+3/4,-z+1/2,x+1/4
176 y+3/4,z+3/4,-x
177 -z+1/2,-x+1/2,-y
178 -z+1/2,x+3/4,y+1/4
179 z+3/4,-x+1/2,y+1/4
180 z+3/4,x+3/4,-y
181 y,x,z+1/2
182 y,-x+3/4,-z+1/4
183 -y+3/4,x,-z+1/4
184 -y+3/4,-x+3/4,z+1/2
185 x,z,y+1/2
186 x,-z+3/4,-y+1/4
187 -x+3/4,z,-y+1/4
188 -x+3/4,-z+3/4,y+1/2
189 z,y,x+1/2
190 z,-y+3/4,-x+1/4
191 -z+3/4,y,-x+1/4
192 -z+3/4,-y+3/4,x+1/2
 
loop_
_atom_site_label
_atom_site_type_symbol
_atom_site_symmetry_multiplicity
_atom_site_Wyckoff_label
_atom_site_fract_x
_atom_site_fract_y
_atom_site_fract_z
_atom_site_occupancy
Br1 Br 192 h 0.81600 0.48520 0.37020 0.333
Cu1 Cu 96 g 0.25000 0.19350 0.80650 1.0
O1 O 32 b 0.25000 0.25000 0.25000 1.0
O2 O 64 e 0.51800 0.51800 0.51800 1.0
O3 O 192 h 0.81520 0.49390 0.38310 0.667
N1 N 96 g 0.25000 0.13640 0.86360 1.0
N2 N 192 h 0.31360 0.08910 0.47930 1.0
C1 C 192 h 0.21820 0.15760 0.38270 1.0
 

