# CIF file
# This is a cif file prepared for use with the openmaterialsdb.se
#
# The cif file was imported from the Crystallography Open Database (COD)
# http://www.crystallography.net/
# based on data placed in the public domain by the contributors.
#
# The original file in cod had 
#COD-MD5: a0c6afb595f06d950737f51481daf139
#
# It was then processed with the FINDSYM tool by
# Harold T. Stokes, Branton J. Campbell, Dorian M. Hatch
# Brigham Young University, Provo, Utah, USA
# which was used to update the structure information.
#
# The original header in COD and relevant COD data follows:
#------------------------------------------------------------------------------
#$Date: 2014-07-11 14:35:18 +0000 (Fri, 11 Jul 2014) $
#$Revision: 120071 $
#$URL: file:///home/coder/svn-repositories/cod/cif/1/51/02/1510206.cif $
#------------------------------------------------------------------------------
data_1510206
loop_
_publ_author_name
'Kanatzidis, M.G.'
'Park, Y.'
_publ_section_title
;
 On the dissolution of gold in K2 Qx and Na2 Qx fluxes (Q = S, Se).
 Formation of K Au S5, K Au Se5, Cs Au Se3, K Au Se2 and Na Au Se2:
 low-dimensional Au(+) and Au(3+) compounds with poly- and
 mono-chalcogenide ligands
;
_journal_name_full               'Journal of Alloys Compd.'
_journal_page_first              137
_journal_page_last               145
_journal_volume                  257
_journal_year                    1997
_chemical_name_systematic        'K (Au Se2)'
_citation_journal_id_ASTM        JALCEU
_[local]_cod_data_source_file    gold_264.cif
_[local]_cod_data_source_block   Au1K1Se2
_[local]_cod_chemical_formula_sum_orig 'Au1 K1 Se2'
_cod_original_cell_volume        217.2414
_cod_database_code               1510206
_journal_paper_doi 10.1016/S0925-8388(96)03130-1

#
# Data extracted using the FINDSYM utility follows
#
 
_audit_creation_method FINDSYM
 
_symmetry_space_group_name_H-M "P m c 21"
_symmetry_space_group_name_Hall 'P 2c -2'
_[local]_omdb_cod_original_Hall '-P 4 2ab'
_symmetry_Int_Tables_number 26
 
_cell_length_a    3.66500
_cell_length_b    7.69900
_cell_length_c    7.69900
_cell_angle_alpha 90.00000
_cell_angle_beta  90.00000
_cell_angle_gamma 90.00000
 
loop_
_space_group_symop_id
_space_group_symop_operation_xyz
1 x,y,z
2 -x,-y,z+1/2
3 -x,y,z
4 x,-y,z+1/2
 
loop_
_atom_site_label
_atom_site_type_symbol
_atom_site_symmetry_multiplicity
_atom_site_Wyckoff_label
_atom_site_fract_x
_atom_site_fract_y
_atom_site_fract_z
_atom_site_occupancy
Au1 Au 2 a 0.00000 0.75000 0.00000 1.0
Se1 Se 2 b 0.50000 -0.09700 0.84720 1.0
Se2 Se 2 b 0.50000 0.40280 0.65300 1.0
Se3 Se 2 b 0.50000 0.59700 0.15280 1.0
K1 K 2 a 0.00000 0.25000 0.00000 1.0
 

