# CIF file
# This is a cif file prepared for use with the openmaterialsdb.se
#
# The cif file was imported from the Crystallography Open Database (COD)
# http://www.crystallography.net/
# based on data placed in the public domain by the contributors.
#
# The original file in cod had 
#COD-MD5: 98757f79a2cc918b4d678b01746cfeb8
#
# It was then processed with the FINDSYM tool by
# Harold T. Stokes, Branton J. Campbell, Dorian M. Hatch
# Brigham Young University, Provo, Utah, USA
# which was used to update the structure information.
#
# The original header in COD and relevant COD data follows:
#------------------------------------------------------------------------------
#$Date: 2014-07-11 14:35:18 +0000 (Fri, 11 Jul 2014) $
#$Revision: 120071 $
#$URL: file:///home/coder/svn-repositories/cod/cif/1/00/17/1001711.cif $
#------------------------------------------------------------------------------
data_1001711
_publ_section_title
;
An ordered oxygen deficient K2 Ni F4 structure: Pb2 Sr2 Cu Fe O6
;
loop_
_publ_author_name
  'Rouillon, T'
  'Caldes, M T'
  'Genouel, R'
  'Michel, C'
  'Hervieu, M'
  'Raveau, B'
_journal_name_full                 'Journal of Materials Chemistry'
_journal_coden_ASTM                JMACEP
_journal_volume                    5
_journal_year                      1995
_journal_page_first                1163
_journal_page_last                 1170
_journal_issue                     8
_refine_ls_R_factor_all            0.06
_cod_database_code 1001711
_journal_paper_doi 10.1039/jm9950501163

#
# Data extracted using the FINDSYM utility follows
#
 
_audit_creation_method FINDSYM
 
_symmetry_space_group_name_H-M "P n c 2"
_symmetry_space_group_name_Hall 'P 2 -2bc'
_[local]_omdb_cod_original_Hall 'P -2ab 2'
_symmetry_Int_Tables_number 30
 
_cell_length_a    12.21120
_cell_length_b    5.52280
_cell_length_c    5.46060
_cell_angle_alpha 90.00000
_cell_angle_beta  90.00000
_cell_angle_gamma 90.00000
 
loop_
_space_group_symop_id
_space_group_symop_operation_xyz
1 x,y,z
2 -x,-y,z
3 -x,y+1/2,z+1/2
4 x,-y+1/2,z+1/2
 
loop_
_atom_site_label
_atom_site_type_symbol
_atom_site_symmetry_multiplicity
_atom_site_Wyckoff_label
_atom_site_fract_x
_atom_site_fract_y
_atom_site_fract_z
_atom_site_occupancy
Cu1 Cu 2 a 0.00000 0.00000 0.50000 1.0
Pb1 Pb 4 c 0.14450 0.00600 0.00000 1.0
Sr1 Sr 4 c 0.35670 0.49800 0.00000 1.0
Fe1 Fe 2 b 0.50000 0.00000 0.00000 1.0
O1 O 4 c 0.14500 0.41000 0.89200 1.0
O2 O 4 c 0.33200 0.00000 0.00000 1.0
O3 O 4 c 0.50000 0.75000 0.75000 1.0
 

