# CIF file
# This is a cif file prepared for use with the openmaterialsdb.se
#
# The cif file was imported from the Crystallography Open Database (COD)
# http://www.crystallography.net/
# based on data placed in the public domain by the contributors.
#
# The original file in cod had 
#COD-MD5: df1853f0007bb14d1de12021d6030ade
#
# It was then processed with the FINDSYM tool by
# Harold T. Stokes, Branton J. Campbell, Dorian M. Hatch
# Brigham Young University, Provo, Utah, USA
# which was used to update the structure information.
#
# The original header in COD and relevant COD data follows:
#------------------------------------------------------------------------------
#$Date: 2014-07-12 08:06:43 +0000 (Sat, 12 Jul 2014) $
#$Revision: 120115 $
#$URL: file:///home/coder/svn-repositories/cod/cif/9/01/64/9016437.cif $
#------------------------------------------------------------------------------
data_9016437
loop_
_publ_author_name
'Sandor, E.'
'Farrow, R. F. C.'
_publ_section_title
;
 Crystal structure of solid hydrogen chloride and deuterium chloride
 Note T = 77.4 K
;
_journal_name_full               Nature
_journal_page_first              171
_journal_page_last               172
_journal_volume                  213
_journal_year                    1967
_database_code_amcsd             0018512
_exptl_crystal_density_diffrn    1.531
_[local]_cod_chemical_formula_sum_orig 'H Cl'
_cod_database_code               9016437
_amcsd_formula_title             HCl
_journal_paper_doi 10.1038/213171a0

#
# Data extracted using the FINDSYM utility follows
#
 
_audit_creation_method FINDSYM
 
_symmetry_space_group_name_H-M "C m c 21"
_symmetry_space_group_name_Hall 'C 2c -2'
_[local]_omdb_cod_original_Hall 'B -2 -2b'
_symmetry_Int_Tables_number 36
 
_cell_length_a    5.82500
_cell_length_b    5.05300
_cell_length_c    5.37300
_cell_angle_alpha 90.00000
_cell_angle_beta  90.00000
_cell_angle_gamma 90.00000
 
loop_
_space_group_symop_id
_space_group_symop_operation_xyz
1 x,y,z
2 -x,-y,z+1/2
3 -x,y,z
4 x,-y,z+1/2
5 x+1/2,y+1/2,z
6 -x+1/2,-y+1/2,z+1/2
7 -x+1/2,y+1/2,z
8 x+1/2,-y+1/2,z+1/2
 
loop_
_atom_site_label
_atom_site_type_symbol
_atom_site_symmetry_multiplicity
_atom_site_Wyckoff_label
_atom_site_fract_x
_atom_site_fract_y
_atom_site_fract_z
_atom_site_occupancy
H1 H 4 a 0.00000 -0.08100 0.83000 1.0
Cl1 Cl 4 a 0.00000 0.75000 0.00000 1.0
 

