# CIF file
# This is a cif file prepared for use with the openmaterialsdb.se
#
# The cif file was imported from the Crystallography Open Database (COD)
# http://www.crystallography.net/
# based on data placed in the public domain by the contributors.
#
# The original file in cod had 
#COD-MD5: cc0d2b4b621befb917c1c3192ecb2812
#
# It was then processed with the FINDSYM tool by
# Harold T. Stokes, Branton J. Campbell, Dorian M. Hatch
# Brigham Young University, Provo, Utah, USA
# which was used to update the structure information.
#
# The original header in COD and relevant COD data follows:
#------------------------------------------------------------------------------
#$Date: 2013-12-28 13:58:47 +0000 (Sat, 28 Dec 2013) $
#$Revision: 91933 $
#$URL: file:///home/coder/svn-repositories/cod/cif/2/00/30/2003027.cif $
#------------------------------------------------------------------------------
data_2003027
loop_
_publ_author_name
'de Jong, B. H. W. S.'
'Sup\`er, H. T. J.'
'Spek, A. L.'
'Veldman, N.'
'Nachtegaal, G.'
'Fischer, J. C.'
_publ_section_title
;
 Mixed Alkali Systems: Structure and ^29^Si MASNMR of Li~2~Si~2~O~5~
 and K~2~Si~2~O~5~
;
_journal_issue                   5
_journal_name_full               'Acta Crystallographica Section B'
_journal_page_first              568
_journal_page_last               577
_journal_volume                  54
_journal_year                    1998
_computing_publication_material  'PLATON (Spek, 1990)'
_diffrn_ambient_temperature      293
_diffrn_measurement_device_type  CAD4-T
_diffrn_measurement_method       \w-2\q-scan
_diffrn_radiation_monochromator  graphite
_diffrn_radiation_source         'Rotating Anode'
_diffrn_radiation_type           'Mo K\a'
_diffrn_radiation_wavelength     0.71073
_diffrn_reflns_av_R_equivalents  0.0639
_diffrn_reflns_av_sigmaI/netI    0.0383
_diffrn_reflns_limit_h_max       7
_diffrn_reflns_limit_h_min       -7
_diffrn_reflns_limit_k_max       18
_diffrn_reflns_limit_k_min       -18
_diffrn_reflns_limit_l_max       6
_diffrn_reflns_limit_l_min       0
_diffrn_reflns_number            967
_diffrn_reflns_theta_max         27.46
_diffrn_reflns_theta_min         2.79
_diffrn_standards_decay_%        1
_diffrn_standards_interval_time  60
_diffrn_standards_number         1
_exptl_absorpt_coefficient_mu    0.78
_exptl_absorpt_correction_T_max  0.991
_exptl_absorpt_correction_T_min  0.789
_exptl_absorpt_correction_type   'analytical (Spek, 1990)'
_exptl_absorpt_process_details   'de Meulenaar & Tompa'
_exptl_crystal_colour            colorless
_exptl_crystal_density_diffrn    2.466
_exptl_crystal_density_meas      'Not measured'
_exptl_crystal_description       'thin plate'
_exptl_crystal_F_000             296
_exptl_crystal_size_max          0.50
_exptl_crystal_size_mid          0.15
_exptl_crystal_size_min          0.012
_refine_diff_density_max         0.818
_refine_diff_density_min         -0.579
_refine_ls_extinction_method     none
_refine_ls_goodness_of_fit_ref   1.133
_refine_ls_hydrogen_treatment    'H-atom refinement: see text '
_refine_ls_matrix_type           full
_refine_ls_number_parameters     42
_refine_ls_number_reflns         261
_refine_ls_number_restraints     1
_refine_ls_restrained_S_all      1.130
_refine_ls_R_factor_all          0.0464
_refine_ls_R_factor_gt           0.0450
_refine_ls_shift/su_max          0.000
_refine_ls_shift/su_mean         0.000
_refine_ls_structure_factor_coef Fsqd
_refine_ls_weighting_scheme
'w = 1/[\s^2^(Fo^2^)+(0.0883P)^2^+0.0491P] where P=(Fo^2^+2Fc^2^)/3'
_refine_ls_wR_factor_ref         0.1138
_reflns_number_gt                249
_reflns_number_total             261
_reflns_threshold_expression     'I > 2 \s(I)'
_[local]_cod_data_source_file    na0083.cif
_[local]_cod_data_source_block   s737a
_[local]_cod_cif_authors_sg_Hall 'C 2 -c'
_cod_depositor_comments
;
The following automatic conversions were performed:
'_symmetry_cell_setting' value 'Orthorhombic' changed to 'orthorhombic'
according to '/home/saulius/struct/CIF-dictionaries/cif_core.dic'
dictionary named 'cif_core.dic' version 2.4.1 from 2010-06-29.

Automatic conversion script
Id: cif_fix_enum 1527 2010-12-29 10:47:43Z saulius 

The following automatic conversions were performed:

'_symmetry_cell_setting' value 'Orthorhombic' changed to
'orthorhombic' according to
/home/saulius/struct/CIF-dictionaries/cif_core.dic dictionary named
'cif_core.dic' version 2.4.1 from 2010-06-29.

Automatic conversion script
Id: cif_fix_values 1715 2011-07-08 13:25:40Z adriana 
;
_cod_database_code               2003027
_journal_paper_doi 10.1107/S0108768198001062

#
# Data extracted using the FINDSYM utility follows
#
 
_audit_creation_method FINDSYM
 
_symmetry_space_group_name_H-M "C c c 2"
_symmetry_space_group_name_Hall 'C 2 -2c'
_[local]_omdb_cod_original_Hall 'C 2 -2c'
_symmetry_Int_Tables_number 37
 
_cell_length_a    14.58200
_cell_length_b    5.80700
_cell_length_c    4.77300
_cell_angle_alpha 90.00000
_cell_angle_beta  90.00000
_cell_angle_gamma 90.00000
 
loop_
_space_group_symop_id
_space_group_symop_operation_xyz
1 x,y,z
2 -x,-y,z
3 -x,y,z+1/2
4 x,-y,z+1/2
5 x+1/2,y+1/2,z
6 -x+1/2,-y+1/2,z
7 -x+1/2,y+1/2,z+1/2
8 x+1/2,-y+1/2,z+1/2
 
loop_
_atom_site_label
_atom_site_type_symbol
_atom_site_symmetry_multiplicity
_atom_site_Wyckoff_label
_atom_site_fract_x
_atom_site_fract_y
_atom_site_fract_z
_atom_site_occupancy
Si1 Si 8 d 0.35156 0.15520 0.50757 1.0
O1 O 4 c 0.25000 0.25000 0.56390 1.0
O2 O 8 d 0.42780 0.32970 0.59780 1.0
O3 O 8 d 0.86230 0.40760 0.67160 1.0
Li1 Li 8 d -0.05820 0.15160 0.51000 1.0
 

