# CIF file
# This is a cif file prepared for use with the openmaterialsdb.se
#
# The cif file was imported from the Crystallography Open Database (COD)
# http://www.crystallography.net/
# based on data placed in the public domain by the contributors.
#
# The original file in cod had 
#COD-MD5: f156946ce742fbd1b50aff289f76caf1
#
# It was then processed with the FINDSYM tool by
# Harold T. Stokes, Branton J. Campbell, Dorian M. Hatch
# Brigham Young University, Provo, Utah, USA
# which was used to update the structure information.
#
# The original header in COD and relevant COD data follows:
#------------------------------------------------------------------------------
#$Date: 2013-05-05 14:21:46 +0000 (Sun, 05 May 2013) $
#$Revision: 85285 $
#$URL: file:///home/coder/svn-repositories/cod/cif/9/00/41/9004112.cif $
#------------------------------------------------------------------------------
data_9004112
loop_
_publ_author_name
'Scott, J. D.'
'Nowacki, W.'
_publ_section_title
;
 The crystal structure of alloclasite, CoAsS, and the
 alloclasite-cobaltite transformation
;
_journal_name_full               'The Canadian Mineralogist'
_journal_page_first              561
_journal_page_last               566
_journal_volume                  14
_journal_year                    1976
_chemical_name_mineral           Alloclasite
_exptl_crystal_density_diffrn    6.187
_[local]_cod_chemical_formula_sum_orig 'Co As S'
_cod_database_code               9004112

#
# Data extracted using the FINDSYM utility follows
#
 
_audit_creation_method FINDSYM
 
_symmetry_space_group_name_H-M "P 1 21 1"
_symmetry_space_group_name_Hall 'P 2yb'
_[local]_omdb_cod_original_Hall 'P 2yb'
_symmetry_Int_Tables_number 4
 
_cell_length_a    3.41100
_cell_length_b    5.60200
_cell_length_c    4.66100
_cell_angle_alpha 90.00000
_cell_angle_beta  90.20000
_cell_angle_gamma 90.00000
 
loop_
_space_group_symop_id
_space_group_symop_operation_xyz
1 x,y,z
2 -x,y+1/2,-z
 
loop_
_atom_site_label
_atom_site_type_symbol
_atom_site_symmetry_multiplicity
_atom_site_Wyckoff_label
_atom_site_fract_x
_atom_site_fract_y
_atom_site_fract_z
_atom_site_occupancy
Co1 Co 2 a 0.75520 0.00000 0.75176 1.0
As1 As 2 a 0.74453 0.62851 -0.04766 1.0
S1 S 2 a 0.75761 0.37764 0.55896 1.0
 

