# CIF file
# This is a cif file prepared for use with the openmaterialsdb.se
#
# The cif file was imported from the Crystallography Open Database (COD)
# http://www.crystallography.net/
# based on data placed in the public domain by the contributors.
#
# The original file in cod had 
#COD-MD5: d64438b1fb3451a961158e640202b8a6
#
# It was then processed with the FINDSYM tool by
# Harold T. Stokes, Branton J. Campbell, Dorian M. Hatch
# Brigham Young University, Provo, Utah, USA
# which was used to update the structure information.
#
# The original header in COD and relevant COD data follows:
#------------------------------------------------------------------------------
#$Date: 2014-07-12 08:06:43 +0000 (Sat, 12 Jul 2014) $
#$Revision: 120115 $
#$URL: file:///home/coder/svn-repositories/cod/cif/9/01/09/9010972.cif $
#------------------------------------------------------------------------------
data_9010972
loop_
_publ_author_name
'Post, B.'
'Schwartz, R. S.'
'Fankuchen, I.'
_publ_section_title
;
 The crystal structure of sulfur dioxide
 Sample: T = -130 C
;
_journal_name_full               'Acta Crystallographica'
_journal_page_first              372
_journal_page_last               374
_journal_volume                  5
_journal_year                    1952
_diffrn_ambient_temperature      143.15
_exptl_crystal_density_diffrn    1.922
_[local]_cod_chemical_formula_sum_orig 'S O2'
_cod_database_code               9010972
_journal_paper_doi 10.1107/S0365110X5200109X

#
# Data extracted using the FINDSYM utility follows
#
 
_audit_creation_method FINDSYM
 
_symmetry_space_group_name_H-M "A b a 2"
_symmetry_space_group_name_Hall 'A 2 -2ac'
_[local]_omdb_cod_original_Hall 'A 2 -2ac'
_symmetry_Int_Tables_number 41
 
_cell_length_a    6.07000
_cell_length_b    5.94000
_cell_length_c    6.14000
_cell_angle_alpha 90.00000
_cell_angle_beta  90.00000
_cell_angle_gamma 90.00000
 
loop_
_space_group_symop_id
_space_group_symop_operation_xyz
1 x,y,z
2 -x,-y,z
3 x+1/2,-y,z+1/2
4 -x+1/2,y,z+1/2
5 x,y+1/2,z+1/2
6 -x,-y+1/2,z+1/2
7 x+1/2,-y+1/2,z
8 -x+1/2,y+1/2,z
 
loop_
_atom_site_label
_atom_site_type_symbol
_atom_site_symmetry_multiplicity
_atom_site_Wyckoff_label
_atom_site_fract_x
_atom_site_fract_y
_atom_site_fract_z
_atom_site_occupancy
S1 S 4 a 0.00000 0.00000 0.00000 1.0
O1 O 8 b 0.64000 0.85000 0.38200 1.0
 

