# CIF file
# This is a cif file prepared for use with the openmaterialsdb.se
#
# The cif file was imported from the Crystallography Open Database (COD)
# http://www.crystallography.net/
# based on data placed in the public domain by the contributors.
#
# The original file in cod had 
#COD-MD5: bdd6afe54c1eff655c64bfc43f0b2a1c
#
# It was then processed with the FINDSYM tool by
# Harold T. Stokes, Branton J. Campbell, Dorian M. Hatch
# Brigham Young University, Provo, Utah, USA
# which was used to update the structure information.
#
# The original header in COD and relevant COD data follows:
#------------------------------------------------------------------------------
#$Date: 2012-02-28 12:14:52 +0000 (Tue, 28 Feb 2012) $
#$Revision: 35911 $
#$URL: file:///home/coder/svn-repositories/cod/cif/1/00/88/1008882.cif $
#------------------------------------------------------------------------------
data_1008882
_chemical_name_systematic          'Sodium ozonide'
_publ_section_title
;
Synthesis and crystal structure determination of sodium ozonide
;
loop_
_publ_author_name
  'Klein, W'
  'Armbruster, K'
  'Jansen, M'
_journal_name_full                 'Chemical Communications'
_journal_coden_ASTM                CHCOFS
_journal_volume                    1998
_journal_year                      1998
_journal_page_first                707
_journal_page_last                 708
_refine_ls_R_factor_all            0.037
_cod_database_code 1008882

#
# Data extracted using the FINDSYM utility follows
#
 
_audit_creation_method FINDSYM
 
_symmetry_space_group_name_H-M "I m m 2"
_symmetry_space_group_name_Hall 'I 2 -2'
_[local]_omdb_cod_original_Hall 'I -2 -2'
_symmetry_Int_Tables_number 44
 
_cell_length_a    5.27010
_cell_length_b    3.50700
_cell_length_c    5.77030
_cell_angle_alpha 90.00000
_cell_angle_beta  90.00000
_cell_angle_gamma 90.00000
 
loop_
_space_group_symop_id
_space_group_symop_operation_xyz
1 x,y,z
2 -x,-y,z
3 -x,y,z
4 x,-y,z
5 x+1/2,y+1/2,z+1/2
6 -x+1/2,-y+1/2,z+1/2
7 -x+1/2,y+1/2,z+1/2
8 x+1/2,-y+1/2,z+1/2
 
loop_
_atom_site_label
_atom_site_type_symbol
_atom_site_symmetry_multiplicity
_atom_site_Wyckoff_label
_atom_site_fract_x
_atom_site_fract_y
_atom_site_fract_z
_atom_site_occupancy
Na1 Na 2 a 0.00000 0.00000 0.49260 1.0
O1 O 2 a 0.00000 0.00000 -0.01060 1.0
O2 O 4 c 0.78610 0.00000 0.11890 1.0
 

