# CIF file
# This is a cif file prepared for use with the openmaterialsdb.se
#
# The cif file was imported from the Crystallography Open Database (COD)
# http://www.crystallography.net/
# based on data placed in the public domain by the contributors.
#
# The original file in cod had 
#COD-MD5: 9ade0c9c081bc4509ae24a6ba966ebeb
#
# It was then processed with the FINDSYM tool by
# Harold T. Stokes, Branton J. Campbell, Dorian M. Hatch
# Brigham Young University, Provo, Utah, USA
# which was used to update the structure information.
#
# The original header in COD and relevant COD data follows:
#------------------------------------------------------------------------------
#$Date: 2013-05-05 14:21:46 +0000 (Sun, 05 May 2013) $
#$Revision: 85285 $
#$URL: file:///home/coder/svn-repositories/cod/cif/9/00/62/9006289.cif $
#------------------------------------------------------------------------------
data_9006289
loop_
_publ_author_name
'Boisen, M. B.'
'Gibbs, G. V.'
'Bukowinski, M. S. T.'
_publ_section_title
;
 Framework silica structures generated using simulated annealing
 with a potential energy function based on an H6Si2O7 molecule
 Sample: 6
;
_journal_name_full               'Physics and Chemistry of Minerals'
_journal_page_first              269
_journal_page_last               284
_journal_volume                  21
_journal_year                    1994
_exptl_crystal_density_diffrn    1.981
_[local]_cod_chemical_formula_sum_orig 'Si O2'
_cod_database_code               9006289

#
# Data extracted using the FINDSYM utility follows
#
 
_audit_creation_method FINDSYM
 
_symmetry_space_group_name_H-M "I m a 2"
_symmetry_space_group_name_Hall 'I 2 -2a'
_[local]_omdb_cod_original_Hall 'I 2 -2a'
_symmetry_Int_Tables_number 46
 
_cell_length_a    10.21700
_cell_length_b    7.95790
_cell_length_c    4.95650
_cell_angle_alpha 90.00000
_cell_angle_beta  90.00000
_cell_angle_gamma 90.00000
 
loop_
_space_group_symop_id
_space_group_symop_operation_xyz
1 x,y,z
2 -x,-y,z
3 -x+1/2,y,z
4 x+1/2,-y,z
5 x+1/2,y+1/2,z+1/2
6 -x+1/2,-y+1/2,z+1/2
7 -x,y+1/2,z+1/2
8 x,-y+1/2,z+1/2
 
loop_
_atom_site_label
_atom_site_type_symbol
_atom_site_symmetry_multiplicity
_atom_site_Wyckoff_label
_atom_site_fract_x
_atom_site_fract_y
_atom_site_fract_z
_atom_site_occupancy
Si1 Si 8 c 0.60183 0.14340 0.00000 1.0
O1 O 4 a 0.00000 0.00000 -0.09431 1.0
O2 O 8 c 0.07933 0.80941 0.31523 1.0
O3 O 4 b 0.25000 0.57547 0.45843 1.0
 

