# CIF file
# This is a cif file prepared for use with the openmaterialsdb.se
#
# The cif file was imported from the Crystallography Open Database (COD)
# http://www.crystallography.net/
# based on data placed in the public domain by the contributors.
#
# The original file in cod had 
#COD-MD5: dfc7eca3d0bb821811671203aff959dd
#
# It was then processed with the FINDSYM tool by
# Harold T. Stokes, Branton J. Campbell, Dorian M. Hatch
# Brigham Young University, Provo, Utah, USA
# which was used to update the structure information.
#
# The original header in COD and relevant COD data follows:
#------------------------------------------------------------------------------
#$Date: 2014-07-11 23:58:39 +0000 (Fri, 11 Jul 2014) $
#$Revision: 120093 $
#$URL: file:///home/coder/svn-repositories/cod/cif/4/31/32/4313216.cif $
#------------------------------------------------------------------------------
data_4313216
loop_
_publ_author_name
'Patrick M. Woodward'
'Pavel Karen'
_publ_section_title
;
 Mixed Valence in YBaFe2O5
;
_journal_name_full               'Inorganic Chemistry'
_journal_page_first              1121
_journal_page_last               1129
_journal_volume                  42
_journal_year                    2003
_computing_structure_refinement  GSAS
_pd_block_id                     |PHASE_2||
_pd_phase_name                   'Magnetic Structure'
_refine_ls_goodness_of_fit_all   1.08
_refine_ls_number_parameters     40
_refine_ls_shift/esd_max         0.02
_refine_ls_shift/esd_mean        0.00
_[local]_cod_data_source_file    ic026022z_s1_18.cif
_[local]_cod_data_source_block   Y500_340_phase_2
_cod_database_code               4313216
_cod_database_fobs_code 4313216
_journal_paper_doi 10.1021/ic026022z

#
# Data extracted using the FINDSYM utility follows
#
 
_audit_creation_method FINDSYM
 
_symmetry_space_group_name_H-M "P 2/m 2/m 2/m"
_symmetry_space_group_name_Hall '-P 2 2'
_[local]_omdb_cod_original_Hall '-P 2 2'
_symmetry_Int_Tables_number 47
 
_cell_length_a    7.56845
_cell_length_b    3.91720
_cell_length_c    3.93215
_cell_angle_alpha 90.00000
_cell_angle_beta  90.00000
_cell_angle_gamma 90.00000
 
loop_
_space_group_symop_id
_space_group_symop_operation_xyz
1 x,y,z
2 x,-y,-z
3 -x,y,-z
4 -x,-y,z
5 -x,-y,-z
6 -x,y,z
7 x,-y,z
8 x,y,-z
 
loop_
_atom_site_label
_atom_site_type_symbol
_atom_site_symmetry_multiplicity
_atom_site_Wyckoff_label
_atom_site_fract_x
_atom_site_fract_y
_atom_site_fract_z
_atom_site_occupancy
Fe1 Fe 2 l 0.26332 0.50000 0.50000 1.0
 

