# CIF file
# This is a cif file prepared for use with the openmaterialsdb.se
#
# The cif file was imported from the Crystallography Open Database (COD)
# http://www.crystallography.net/
# based on data placed in the public domain by the contributors.
#
# The original file in cod had 
#COD-MD5: e47f9825f53aac14c230a6e1fe10e73c
#
# It was then processed with the FINDSYM tool by
# Harold T. Stokes, Branton J. Campbell, Dorian M. Hatch
# Brigham Young University, Provo, Utah, USA
# which was used to update the structure information.
#
# The original header in COD and relevant COD data follows:
#------------------------------------------------------------------------------
#$Date: 2014-07-11 22:16:09 +0000 (Fri, 11 Jul 2014) $
#$Revision: 120081 $
#$URL: file:///home/coder/svn-repositories/cod/cif/4/30/37/4303742.cif $
#------------------------------------------------------------------------------
data_4303742
loop_
_publ_author_name
'Haisheng Lin'
'Xiaomeng Wu'
'Paul A. Maggard'
_publ_section_title
;
Ligand-Based Modification of the Structures and Optical Properties of New
Silver(I)-Rhenate(VII) Oxide/Organic Hybrid Solids
;
_journal_name_full               'Inorganic Chemistry'
_journal_page_first              11265
_journal_page_last               11276
_journal_volume                  48
_journal_year                    2009
_computing_cell_refinement       'Bruker SMART'
_computing_data_collection       'Bruker SMART'
_computing_data_reduction        'Bruker SAINT'
_computing_molecular_graphics    'Bruker SHELXTL'
_computing_publication_material  'Bruker SHELXTL'
_computing_structure_refinement  'SHELXL-97 (Sheldrick, 1997)'
_computing_structure_solution    'SHELXS-97 (Sheldrick, 1990)'
_diffrn_ambient_temperature      296(2)
_diffrn_measured_fraction_theta_full 0.999
_diffrn_measured_fraction_theta_max 0.999
_diffrn_measurement_device_type  'CCD area detector'
_diffrn_measurement_method       'phi and omega scans'
_diffrn_radiation_monochromator  graphite
_diffrn_radiation_source         'fine-focus sealed tube'
_diffrn_radiation_type           MoK\a
_diffrn_radiation_wavelength     0.71073
_diffrn_reflns_av_R_equivalents  0.0443
_diffrn_reflns_av_sigmaI/netI    0.0153
_diffrn_reflns_limit_h_max       7
_diffrn_reflns_limit_h_min       -7
_diffrn_reflns_limit_k_max       15
_diffrn_reflns_limit_k_min       -15
_diffrn_reflns_limit_l_max       17
_diffrn_reflns_limit_l_min       -17
_diffrn_reflns_number            19042
_diffrn_reflns_theta_full        25.35
_diffrn_reflns_theta_max         25.35
_diffrn_reflns_theta_min         2.74
_exptl_absorpt_coefficient_mu    5.673
_exptl_absorpt_correction_type   none
_exptl_crystal_colour            colorless
_exptl_crystal_density_diffrn    1.936
_exptl_crystal_density_method    'not measured'
_exptl_crystal_description       needless
_exptl_crystal_F_000             700.0
_exptl_crystal_size_max          0.36
_exptl_crystal_size_mid          0.04
_exptl_crystal_size_min          0.04
_refine_diff_density_max         3.056
_refine_diff_density_min         -4.823
_refine_diff_density_rms         0.184
_refine_ls_extinction_method     none
_refine_ls_goodness_of_fit_ref   1.124
_refine_ls_hydrogen_treatment    mixed
_refine_ls_matrix_type           full
_refine_ls_number_parameters     87
_refine_ls_number_reflns         1148
_refine_ls_number_restraints     0
_refine_ls_restrained_S_all      1.124
_refine_ls_R_factor_all          0.0660
_refine_ls_R_factor_gt           0.0518
_refine_ls_shift/su_max          0.000
_refine_ls_shift/su_mean         0.000
_refine_ls_structure_factor_coef Fsqd
_refine_ls_weighting_details
'calc w=1/[\s^2^(Fo^2^)+(0.1210P)^2^+5.9133P] where P=(Fo^2^+2Fc^2^)/3'
_refine_ls_weighting_scheme      calc
_refine_ls_wR_factor_gt          0.1836
_refine_ls_wR_factor_ref         0.1979
_reflns_number_gt                832
_reflns_number_total             1148
_reflns_threshold_expression     >2sigma(I)
_[local]_cod_data_source_file    ic901749r_si_002_9.cif
_[local]_cod_data_source_block   9
_[local]_cod_cif_authors_sg_H-M  'P n n n'
_cod_depositor_comments
;
The following automatic conversions were performed:
'_symmetry_cell_setting' value 'Orthorhombic' changed to 'orthorhombic'
according to '/home/saulius/struct/CIF-dictionaries/cif_core.dic'
dictionary named 'cif_core.dic' version 2.4.1 from 2010-06-29.

Automatic conversion script
Id: cif_fix_enum 1527 2010-12-29 10:47:43Z saulius 
;
_cod_original_cell_volume        1246.64(9)
_cod_database_code               4303742
_journal_paper_doi 10.1021/ic901749r

#
# Data extracted using the FINDSYM utility follows
#
 
_audit_creation_method FINDSYM
 
_symmetry_space_group_name_H-M "P 2/n 2/n 2/n (origin choice 2)"
_symmetry_space_group_name_Hall '-P 2ab 2bc'
_[local]_omdb_cod_original_Hall '-P 2ab 2bc'
_symmetry_Int_Tables_number 48
 
_cell_length_a    6.37160
_cell_length_b    13.16460
_cell_length_c    14.86220
_cell_angle_alpha 90.00000
_cell_angle_beta  90.00000
_cell_angle_gamma 90.00000
 
loop_
_space_group_symop_id
_space_group_symop_operation_xyz
1 x,y,z
2 x,-y+1/2,-z+1/2
3 -x+1/2,y,-z+1/2
4 -x+1/2,-y+1/2,z
5 -x,-y,-z
6 -x,y+1/2,z+1/2
7 x+1/2,-y,z+1/2
8 x+1/2,y+1/2,-z
 
loop_
_atom_site_label
_atom_site_type_symbol
_atom_site_symmetry_multiplicity
_atom_site_Wyckoff_label
_atom_site_fract_x
_atom_site_fract_y
_atom_site_fract_z
_atom_site_occupancy
Ag1 Ag 2 b 0.75000 0.25000 0.25000 1.0
Re1 Re 2 c 0.25000 0.25000 0.75000 1.0
O1 O 8 m 0.09560 0.32520 0.68390 1.0
N1 N 8 m 0.44820 0.64470 0.65860 1.0
C1 C 8 m 0.51660 0.67760 0.57990 1.0
C2 C 8 m 0.52030 0.55350 0.68570 1.0
C3 C 8 m 0.65430 0.62590 0.52730 1.0
C4 C 8 m 0.66100 0.49710 0.63540 1.0
C5 C 8 m 0.73430 0.53320 0.55440 1.0
C6 C 8 m 0.89150 0.47620 0.49960 1.0
H1 H 8 m -0.07600 0.40800 0.51400 1.0
H2 H 8 m 0.46750 0.73990 0.55940 1.0
H3 H 8 m 0.47380 0.52750 0.74040 1.0
H4 H 8 m 0.69530 0.65330 0.47230 1.0
H5 H 8 m 0.70570 0.43420 0.65640 1.0
H6 H 8 m 0.83000 0.46500 0.44600 1.0
 

