# CIF file
# This is a cif file prepared for use with the openmaterialsdb.se
#
# The cif file was imported from the Crystallography Open Database (COD)
# http://www.crystallography.net/
# based on data placed in the public domain by the contributors.
#
# The original file in cod had 
#COD-MD5: 85ee0a104410f2680e25e0059730f1d5
#
# It was then processed with the FINDSYM tool by
# Harold T. Stokes, Branton J. Campbell, Dorian M. Hatch
# Brigham Young University, Provo, Utah, USA
# which was used to update the structure information.
#
# The original header in COD and relevant COD data follows:
#------------------------------------------------------------------------------
#$Date: 2014-07-12 08:06:43 +0000 (Sat, 12 Jul 2014) $
#$Revision: 120115 $
#$URL: file:///home/coder/svn-repositories/cod/cif/9/01/22/9012237.cif $
#------------------------------------------------------------------------------
data_9012237
loop_
_publ_author_name
'Fayos, J.'
_publ_section_title
;
 Possible 3D carbon structures as progressive intermediates in graphite
 to diamond phase transition
 Note: mathematical model, phase: diam_cr44_ch
;
_journal_name_full               'Journal of Solid State Chemistry'
_journal_page_first              278
_journal_page_last               285
_journal_volume                  148
_journal_year                    1999
_chemical_name_mineral           Diamond
_exptl_crystal_density_diffrn    3.250
_[local]_cod_cif_authors_sg_H-M  'P b a n'
_cod_database_code               9012237
_journal_paper_doi 10.1006/jssc.1999.8448

#
# Data extracted using the FINDSYM utility follows
#
 
_audit_creation_method FINDSYM
 
_symmetry_space_group_name_H-M "P 2/b 2/a 2/n (origin choice 2)"
_symmetry_space_group_name_Hall '-P 2ab 2b'
_[local]_omdb_cod_original_Hall 'P 2 2 -1ab'
_symmetry_Int_Tables_number 50
 
_cell_length_a    4.12700
_cell_length_b    4.93700
_cell_length_c    4.81900
_cell_angle_alpha 90.00000
_cell_angle_beta  90.00000
_cell_angle_gamma 90.00000
 
loop_
_space_group_symop_id
_space_group_symop_operation_xyz
1 x,y,z
2 x,-y+1/2,-z
3 -x+1/2,y,-z
4 -x+1/2,-y+1/2,z
5 -x,-y,-z
6 -x,y+1/2,z
7 x+1/2,-y,z
8 x+1/2,y+1/2,-z
 
loop_
_atom_site_label
_atom_site_type_symbol
_atom_site_symmetry_multiplicity
_atom_site_Wyckoff_label
_atom_site_fract_x
_atom_site_fract_y
_atom_site_fract_z
_atom_site_occupancy
C1 C 8 m 0.08120 0.41440 0.18710 1.0
C2 C 8 m 0.77570 0.38870 0.33760 1.0
 

