# CIF file
# This is a cif file prepared for use with the openmaterialsdb.se
#
# The cif file was imported from the Crystallography Open Database (COD)
# http://www.crystallography.net/
# based on data placed in the public domain by the contributors.
#
# The original file in cod had 
#COD-MD5: 288d5ea3e8bd1f3888e0ff2a2dea9451
#
# It was then processed with the FINDSYM tool by
# Harold T. Stokes, Branton J. Campbell, Dorian M. Hatch
# Brigham Young University, Provo, Utah, USA
# which was used to update the structure information.
#
# The original header in COD and relevant COD data follows:
#------------------------------------------------------------------------------
#$Date: 2014-07-12 08:06:43 +0000 (Sat, 12 Jul 2014) $
#$Revision: 120115 $
#$URL: file:///home/coder/svn-repositories/cod/cif/9/01/63/9016355.cif $
#------------------------------------------------------------------------------
data_9016355
loop_
_publ_author_name
'Fourquet, J.'
'Gillet, P.'
'Le Bail, A.'
_publ_section_title
;
 Li/H topotactic exchange on LiSbO3: The series Li(1-x)HxSbO3 (0<=x<=1).
 _cod_database_code 1000142
;
_journal_name_full               'Materials Research Bulletin'
_journal_page_first              1207
_journal_page_last               1214
_journal_volume                  24
_journal_year                    1989
_database_code_amcsd             0014343
_exptl_crystal_density_diffrn    5.354
_[local]_cod_chemical_formula_sum_orig 'Li.4 Sb O3'
_cod_database_code               9016355
_amcsd_formula_title             H0.6Li0.4SbO3
_journal_paper_doi 10.1016/0025-5408(89)90195-5

#
# Data extracted using the FINDSYM utility follows
#
 
_audit_creation_method FINDSYM
 
_symmetry_space_group_name_H-M "P 2/n 21/n 2/a"
_symmetry_space_group_name_Hall '-P 2a 2bc'
_[local]_omdb_cod_original_Hall '-P 2ab 2n'
_symmetry_Int_Tables_number 52
 
_cell_length_a    5.23060
_cell_length_b    4.72600
_cell_length_c    8.65900
_cell_angle_alpha 90.00000
_cell_angle_beta  90.00000
_cell_angle_gamma 90.00000
 
loop_
_space_group_symop_id
_space_group_symop_operation_xyz
1 x,y,z
2 x,-y+1/2,-z+1/2
3 -x+1/2,y+1/2,-z+1/2
4 -x+1/2,-y,z
5 -x,-y,-z
6 -x,y+1/2,z+1/2
7 x+1/2,-y+1/2,z+1/2
8 x+1/2,y,-z
 
loop_
_atom_site_label
_atom_site_type_symbol
_atom_site_symmetry_multiplicity
_atom_site_Wyckoff_label
_atom_site_fract_x
_atom_site_fract_y
_atom_site_fract_z
_atom_site_occupancy
Li1 Li 4 c 0.25000 0.00000 0.71700 0.4
Sb1 Sb 4 c 0.25000 0.00000 0.09700 1.0
O1 O 8 e -0.07100 0.22200 0.07100 1.0
O2 O 4 d 0.39700 0.25000 0.25000 1.0
 

