# CIF file
# This is a cif file prepared for use with the openmaterialsdb.se
#
# The cif file was imported from the Crystallography Open Database (COD)
# http://www.crystallography.net/
# based on data placed in the public domain by the contributors.
#
# The original file in cod had 
#COD-MD5: 8f503d2a25f4f1d7e64da5c1268654ce
#
# It was then processed with the FINDSYM tool by
# Harold T. Stokes, Branton J. Campbell, Dorian M. Hatch
# Brigham Young University, Provo, Utah, USA
# which was used to update the structure information.
#
# The original header in COD and relevant COD data follows:
#------------------------------------------------------------------------------
#$Date: 2013-05-09 13:53:25 +0000 (Thu, 09 May 2013) $
#$Revision: 86000 $
#$URL: file:///home/coder/svn-repositories/cod/cif/9/01/49/9014996.cif $
#------------------------------------------------------------------------------
data_9014996
loop_
_publ_author_name
'Harker, D.'
_publ_section_title
;
 The Crystal Structure of Cupric Chloride Dihydrate Cu Cl2 (H2 O)2
 _cod_database_code 1011014
;
_journal_name_full               'Zeitschrift fur Kristallographie'
_journal_page_first              136
_journal_page_last               145
_journal_volume                  93
_journal_year                    1936
_chemical_name_mineral           Eriochalcite
_database_code_amcsd             0017922
_exptl_crystal_density_diffrn    2.504
_[local]_cod_chemical_formula_sum_orig 'Cu O2 Cl2'
_cod_database_code               9014996

#
# Data extracted using the FINDSYM utility follows
#
 
_audit_creation_method FINDSYM
 
_symmetry_space_group_name_H-M "P 2/m 2/n 21/a"
_symmetry_space_group_name_Hall '-P 2ac 2'
_[local]_omdb_cod_original_Hall '-P 2ab 2ab'
_symmetry_Int_Tables_number 53
 
_cell_length_a    8.04000
_cell_length_b    3.72000
_cell_length_c    7.38000
_cell_angle_alpha 90.00000
_cell_angle_beta  90.00000
_cell_angle_gamma 90.00000
 
loop_
_space_group_symop_id
_space_group_symop_operation_xyz
1 x,y,z
2 x,-y,-z
3 -x+1/2,y,-z+1/2
4 -x+1/2,-y,z+1/2
5 -x,-y,-z
6 -x,y,z
7 x+1/2,-y,z+1/2
8 x+1/2,y,-z+1/2
 
loop_
_atom_site_label
_atom_site_type_symbol
_atom_site_symmetry_multiplicity
_atom_site_Wyckoff_label
_atom_site_fract_x
_atom_site_fract_y
_atom_site_fract_z
_atom_site_occupancy
Cu1 Cu 2 b 0.50000 0.00000 0.00000 1.0
O1 O 4 e 0.25000 0.00000 0.00000 1.0
Cl1 Cl 4 h 0.00000 0.37000 0.75000 1.0
 

