# CIF file
# This is a cif file prepared for use with the openmaterialsdb.se
#
# The cif file was imported from the Crystallography Open Database (COD)
# http://www.crystallography.net/
# based on data placed in the public domain by the contributors.
#
# The original file in cod had 
#COD-MD5: ca9aa60842aa6afc4ca327c2b8e2ea09
#
# It was then processed with the FINDSYM tool by
# Harold T. Stokes, Branton J. Campbell, Dorian M. Hatch
# Brigham Young University, Provo, Utah, USA
# which was used to update the structure information.
#
# The original header in COD and relevant COD data follows:
#------------------------------------------------------------------------------
#$Date: 2013-05-05 14:21:46 +0000 (Sun, 05 May 2013) $
#$Revision: 85285 $
#$URL: file:///home/coder/svn-repositories/cod/cif/9/00/00/9000012.cif $
#------------------------------------------------------------------------------
data_9000012
loop_
_publ_author_name
'Buerger, M. J.'
_publ_section_title
;
 The crystal structure of valentinite
;
_journal_name_full               'American Mineralogist'
_journal_page_first              206
_journal_page_last               207
_journal_volume                  21
_journal_year                    1936
_chemical_name_mineral           Valentinite
_exptl_crystal_density_diffrn    5.827
_[local]_cod_chemical_formula_sum_orig 'Sb2 O3'
_cod_database_code               9000012

#
# Data extracted using the FINDSYM utility follows
#
 
_audit_creation_method FINDSYM
 
_symmetry_space_group_name_H-M "P 21/c 21/c 2/n"
_symmetry_space_group_name_Hall '-P 2ab 2ac'
_[local]_omdb_cod_original_Hall '-P 2ab 2ac'
_symmetry_Int_Tables_number 56
 
_cell_length_a    4.92000
_cell_length_b    12.46000
_cell_length_c    5.42000
_cell_angle_alpha 90.00000
_cell_angle_beta  90.00000
_cell_angle_gamma 90.00000
 
loop_
_space_group_symop_id
_space_group_symop_operation_xyz
1 x,y,z
2 x+1/2,-y,-z+1/2
3 -x,y+1/2,-z+1/2
4 -x+1/2,-y+1/2,z
5 -x,-y,-z
6 -x+1/2,y,z+1/2
7 x,-y+1/2,z+1/2
8 x+1/2,y+1/2,-z
 
loop_
_atom_site_label
_atom_site_type_symbol
_atom_site_symmetry_multiplicity
_atom_site_Wyckoff_label
_atom_site_fract_x
_atom_site_fract_y
_atom_site_fract_z
_atom_site_occupancy
Sb1 Sb 8 e 0.12150 0.20700 0.17500 1.0
O1 O 4 c 0.25000 0.25000 -0.07500 1.0
O2 O 8 e 0.89000 0.15600 0.17500 1.0
 

