# CIF file
# This is a cif file prepared for use with the openmaterialsdb.se
#
# The cif file was imported from the Crystallography Open Database (COD)
# http://www.crystallography.net/
# based on data placed in the public domain by the contributors.
#
# The original file in cod had 
#COD-MD5: f93530dcdf97dce92271e32b4c1db790
#
# It was then processed with the FINDSYM tool by
# Harold T. Stokes, Branton J. Campbell, Dorian M. Hatch
# Brigham Young University, Provo, Utah, USA
# which was used to update the structure information.
#
# The original header in COD and relevant COD data follows:
#------------------------------------------------------------------------------
#$Date: 2013-05-05 14:21:46 +0000 (Sun, 05 May 2013) $
#$Revision: 85285 $
#$URL: file:///home/coder/svn-repositories/cod/cif/9/00/89/9008960.cif $
#------------------------------------------------------------------------------
data_9008960
loop_
_publ_author_name
'Wyckoff, R. W. G.'
_publ_section_title
;
 Second edition. Interscience Publishers, New York, New York
 Sample known as yellow plumbous oxide
;
_journal_name_full               'Crystal Structures'
_journal_page_first              85
_journal_page_last               237
_journal_volume                  1
_journal_year                    1963
_exptl_crystal_density_diffrn    9.602
_[local]_cod_chemical_formula_sum_orig 'Pb O'
_cod_database_code               9008960

#
# Data extracted using the FINDSYM utility follows
#
 
_audit_creation_method FINDSYM
 
_symmetry_space_group_name_H-M "P 2/b 21/c 21/m"
_symmetry_space_group_name_Hall '-P 2c 2b'
_[local]_omdb_cod_original_Hall '-P 2a 2ab'
_symmetry_Int_Tables_number 57
 
_cell_length_a    5.48900
_cell_length_b    5.89100
_cell_length_c    4.77500
_cell_angle_alpha 90.00000
_cell_angle_beta  90.00000
_cell_angle_gamma 90.00000
 
loop_
_space_group_symop_id
_space_group_symop_operation_xyz
1 x,y,z
2 x,-y+1/2,-z
3 -x,y+1/2,-z+1/2
4 -x,-y,z+1/2
5 -x,-y,-z
6 -x,y+1/2,z
7 x,-y+1/2,z+1/2
8 x,y,-z+1/2
 
loop_
_atom_site_label
_atom_site_type_symbol
_atom_site_symmetry_multiplicity
_atom_site_Wyckoff_label
_atom_site_fract_x
_atom_site_fract_y
_atom_site_fract_z
_atom_site_occupancy
Pb1 Pb 4 d 0.23090 0.02080 0.25000 1.0
O1 O 4 d 0.86910 -0.08860 0.25000 1.0
 

