# CIF file
# This is a cif file prepared for use with the openmaterialsdb.se
#
# The cif file was imported from the Crystallography Open Database (COD)
# http://www.crystallography.net/
# based on data placed in the public domain by the contributors.
#
# The original file in cod had 
#COD-MD5: 72c4fd04f0ebb4ce82d71532029232a1
#
# It was then processed with the FINDSYM tool by
# Harold T. Stokes, Branton J. Campbell, Dorian M. Hatch
# Brigham Young University, Provo, Utah, USA
# which was used to update the structure information.
#
# The original header in COD and relevant COD data follows:
#------------------------------------------------------------------------------
#$Date: 2012-02-28 12:14:52 +0000 (Tue, 28 Feb 2012) $
#$Revision: 35911 $
#$URL: file:///home/coder/svn-repositories/cod/cif/5/90/00/5900009.cif $
#------------------------------------------------------------------------------
data_5900009
_journal_name_full               'Trans. Faraday Soc.'
_journal_page_first              24
_journal_volume                  40
_journal_year                    1944
_chemical_name_systematic        Ethylene
_diffrn_ambient_temperature      98
_[local]_cod_data_source_file    010_ethylene.cif
_[local]_cod_data_source_block   ethylene
loop_
_citation_id
_citation_coordinate_linkage
_citation_title
_citation_book_title
_citation_country
_citation_page_first
_citation_page_last
_citation_year
_citation_book_publisher
_[local]_cod_citation_special_details
1 yes ? 'Organicheskaja Kristallokhimija' USSR ? ? 1955
'Izdatel'stvo Akademii Nauk SSSR'
;

Coordinates are presented as published in this book, Kitajgorodskij's
"Organicheskaja Kristallokhimija", keyed in manually.

Saulius Gra\<zulis
;
loop_
_citation_author_citation_id
_citation_author_name
1 'A. I. Kitajgorodskij'
_cod_database_code 5900009

#
# Data extracted using the FINDSYM utility follows
#
 
_audit_creation_method FINDSYM
 
_symmetry_space_group_name_H-M "P 21/n 21/n 2/m"
_symmetry_space_group_name_Hall '-P 2 2n'
_[local]_omdb_cod_original_Hall '-P 2 2n'
_symmetry_Int_Tables_number 58
 
_cell_length_a    4.87000
_cell_length_b    6.46000
_cell_length_c    4.15000
_cell_angle_alpha 90.00000
_cell_angle_beta  90.00000
_cell_angle_gamma 90.00000
 
loop_
_space_group_symop_id
_space_group_symop_operation_xyz
1 x,y,z
2 x+1/2,-y+1/2,-z+1/2
3 -x+1/2,y+1/2,-z+1/2
4 -x,-y,z
5 -x,-y,-z
6 -x+1/2,y+1/2,z+1/2
7 x+1/2,-y+1/2,z+1/2
8 x,y,-z
 
loop_
_atom_site_label
_atom_site_type_symbol
_atom_site_symmetry_multiplicity
_atom_site_Wyckoff_label
_atom_site_fract_x
_atom_site_fract_y
_atom_site_fract_z
_atom_site_occupancy
C1 C 4 g 0.11000 0.56000 0.00000 1.0
 

