# CIF file
# This is a cif file prepared for use with the openmaterialsdb.se
#
# The cif file was imported from the Crystallography Open Database (COD)
# http://www.crystallography.net/
# based on data placed in the public domain by the contributors.
#
# The original file in cod had 
#COD-MD5: 154dbc79a6ccce0e7fac981f267cf33d
#
# It was then processed with the FINDSYM tool by
# Harold T. Stokes, Branton J. Campbell, Dorian M. Hatch
# Brigham Young University, Provo, Utah, USA
# which was used to update the structure information.
#
# The original header in COD and relevant COD data follows:
#------------------------------------------------------------------------------
#$Date: 2013-03-09 16:19:25 +0000 (Sat, 09 Mar 2013) $
#$Revision: 75362 $
#$URL: file:///home/coder/svn-repositories/cod/cif/2/30/03/2300377.cif $
#------------------------------------------------------------------------------
data_2300377
loop_
_publ_author_name
'Wood, Ian G.'
'Ahmed, Jabraan'
'Dobson, David P.'
'Vo\<cadlo, Lidunka'
_publ_section_title
;
 High-pressure phase transitions and equations of state in NiSi. III. A
 new high-pressure phase of NiSi
;
_journal_coeditor_code           ks5332
_journal_issue                   1
_journal_name_full               'Journal of Applied Crystallography'
_journal_page_first              14
_journal_page_last               24
_journal_volume                  46
_journal_year                    2013
_chemical_name_systematic        ' ?'
_pd_block_id                     2012-07-25T10:11|XU1279_R2_phase3|Ian_G_Wood||
_pd_phase_name                   'Pmmn phase'
_journal_paper_doi               10.1107/S0021889812047085
_[local]_cod_data_source_file    ks5332.cif
_[local]_cod_data_source_block   XU1279_R2_phase_3
_[local]_cod_cif_authors_sg_H-M  'P m m n'
_cod_depositor_comments
;
The following automatic conversions were performed:

'_geom_bond_publ_flag' value 'N' changed to 'n' according to
/home/saulius/struct/CIF-dictionaries/cif_core.dic dictionary named
'cif_core.dic' version 2.4.2 from 2011-04-26 (28
times).

'_geom_angle_publ_flag' value 'N' changed to 'n' according
to /home/saulius/struct/CIF-dictionaries/cif_core.dic dictionary
named 'cif_core.dic' version 2.4.2 from 2011-04-26 (30 times).

Automatic conversion script
Id: cif_fix_values 1891 2012-01-12 08:04:46Z andrius 
;
_cod_original_cell_volume        46.5440(10)
_cod_database_code               2300377
loop_
_pd_block_diffractogram_id
2012-07-25T10:11|XU1279_R2_H_01|Ian_G_Wood|PANalytical_X'Pert_Pro

#
# Data extracted using the FINDSYM utility follows
#
 
_audit_creation_method FINDSYM
 
_symmetry_space_group_name_H-M "P 21/m 21/m 2/n (origin choice 2)"
_symmetry_space_group_name_Hall '-P 2ab 2a'
_[local]_omdb_cod_original_Hall '-P 2ab 2a'
_symmetry_Int_Tables_number 59
 
_cell_length_a    3.27350
_cell_length_b    3.02662
_cell_length_c    4.69776
_cell_angle_alpha 90.00000
_cell_angle_beta  90.00000
_cell_angle_gamma 90.00000
 
loop_
_space_group_symop_id
_space_group_symop_operation_xyz
1 x,y,z
2 x+1/2,-y,-z
3 -x,y+1/2,-z
4 -x+1/2,-y+1/2,z
5 -x,-y,-z
6 -x+1/2,y,z
7 x,-y+1/2,z
8 x+1/2,y+1/2,-z
 
loop_
_atom_site_label
_atom_site_type_symbol
_atom_site_symmetry_multiplicity
_atom_site_Wyckoff_label
_atom_site_fract_x
_atom_site_fract_y
_atom_site_fract_z
_atom_site_occupancy
Ni1 Ni 2 a 0.25000 0.25000 0.34422 1.0
Si1 Si 2 a 0.25000 0.25000 0.84230 1.0
 

