# CIF file
# This is a cif file prepared for use with the openmaterialsdb.se
#
# The cif file was imported from the Crystallography Open Database (COD)
# http://www.crystallography.net/
# based on data placed in the public domain by the contributors.
#
# The original file in cod had 
#COD-MD5: db8aa0e4384e7b86bcac482b719d23a5
#
# It was then processed with the FINDSYM tool by
# Harold T. Stokes, Branton J. Campbell, Dorian M. Hatch
# Brigham Young University, Provo, Utah, USA
# which was used to update the structure information.
#
# The original header in COD and relevant COD data follows:
#------------------------------------------------------------------------------
#$Date: 2013-05-05 14:21:46 +0000 (Sun, 05 May 2013) $
#$Revision: 85285 $
#$URL: file:///home/coder/svn-repositories/cod/cif/9/00/27/9002782.cif $
#------------------------------------------------------------------------------
data_9002782
loop_
_publ_author_name
'Dera, P.'
'Prewitt, C. T.'
'Boctor, N. Z.'
'Hemley, R. J.'
_publ_section_title
;
 Characterization of a high-pressure phase of silica from the
 Martian meteorite Shergotty
 alpha-PbO2-like
;
_journal_name_full               'American Mineralogist'
_journal_page_first              1018
_journal_page_last               1023
_journal_volume                  87
_journal_year                    2002
_chemical_name_mineral           Seifertite
_exptl_crystal_density_diffrn    4.295
_[local]_cod_chemical_formula_sum_orig 'Si O2'
_cod_database_code               9002782

#
# Data extracted using the FINDSYM utility follows
#
 
_audit_creation_method FINDSYM
 
_symmetry_space_group_name_H-M "P 21/b 2/c 21/n"
_symmetry_space_group_name_Hall '-P 2n 2ab'
_[local]_omdb_cod_original_Hall '-P 2n 2ab'
_symmetry_Int_Tables_number 60
 
_cell_length_a    4.09700
_cell_length_b    5.04620
_cell_length_c    4.49460
_cell_angle_alpha 90.00000
_cell_angle_beta  90.00000
_cell_angle_gamma 90.00000
 
loop_
_space_group_symop_id
_space_group_symop_operation_xyz
1 x,y,z
2 x+1/2,-y+1/2,-z
3 -x,y,-z+1/2
4 -x+1/2,-y+1/2,z+1/2
5 -x,-y,-z
6 -x+1/2,y+1/2,z
7 x,-y,z+1/2
8 x+1/2,y+1/2,-z+1/2
 
loop_
_atom_site_label
_atom_site_type_symbol
_atom_site_symmetry_multiplicity
_atom_site_Wyckoff_label
_atom_site_fract_x
_atom_site_fract_y
_atom_site_fract_z
_atom_site_occupancy
Si1 Si 4 c 0.00000 0.34780 0.25000 1.0
O1 O 8 d 0.23360 0.62450 0.41860 1.0
 

