# CIF file
# This is a cif file prepared for use with the openmaterialsdb.se
#
# The cif file was imported from the Crystallography Open Database (COD)
# http://www.crystallography.net/
# based on data placed in the public domain by the contributors.
#
# The original file in cod had 
#COD-MD5: 0b5e462d6f064b579b8d70a2d1f1e52b
#
# It was then processed with the FINDSYM tool by
# Harold T. Stokes, Branton J. Campbell, Dorian M. Hatch
# Brigham Young University, Provo, Utah, USA
# which was used to update the structure information.
#
# The original header in COD and relevant COD data follows:
#------------------------------------------------------------------------------
#$Date: 2013-05-09 13:53:25 +0000 (Thu, 09 May 2013) $
#$Revision: 86000 $
#$URL: file:///home/coder/svn-repositories/cod/cif/9/01/54/9015483.cif $
#------------------------------------------------------------------------------
data_9015483
loop_
_publ_author_name
'Gondrand, M.'
'Bertaut, E.'
_publ_section_title
;
 Une nouvelle classe de composes Li T O2 (T = Sm, Eu, Gd)
 _cod_database_code 1008926
;
_journal_name_full
'Bulletin de la Societe Francaise de Mineralogie et de Cristallographie'
_journal_page_first              301
_journal_page_last               302
_journal_volume                  86
_journal_year                    1963
_database_code_amcsd             0016793
_exptl_crystal_density_diffrn    5.016
_cod_database_code               9015483
_amcsd_formula_title             'Gd Li O2'

#
# Data extracted using the FINDSYM utility follows
#
 
_audit_creation_method FINDSYM
 
_symmetry_space_group_name_H-M "P 21/n 21/m 21/a"
_symmetry_space_group_name_Hall '-P 2ac 2n'
_[local]_omdb_cod_original_Hall '-P 2c 2ab'
_symmetry_Int_Tables_number 62
 
_cell_length_a    11.34000
_cell_length_b    3.44800
_cell_length_c    5.32600
_cell_angle_alpha 90.00000
_cell_angle_beta  90.00000
_cell_angle_gamma 90.00000
 
loop_
_space_group_symop_id
_space_group_symop_operation_xyz
1 x,y,z
2 x+1/2,-y+1/2,-z+1/2
3 -x,y+1/2,-z
4 -x+1/2,-y,z+1/2
5 -x,-y,-z
6 -x+1/2,y+1/2,z+1/2
7 x,-y+1/2,z
8 x+1/2,y,-z+1/2
 
loop_
_atom_site_label
_atom_site_type_symbol
_atom_site_symmetry_multiplicity
_atom_site_Wyckoff_label
_atom_site_fract_x
_atom_site_fract_y
_atom_site_fract_z
_atom_site_occupancy
Gd1 Gd 4 c 0.36300 0.25000 0.45000 1.0
 

