# CIF file
# This is a cif file prepared for use with the openmaterialsdb.se
#
# The cif file was imported from the Crystallography Open Database (COD)
# http://www.crystallography.net/
# based on data placed in the public domain by the contributors.
#
# The original file in cod had 
#COD-MD5: c415971d031149bd89f15cb18b2512ce
#
# It was then processed with the FINDSYM tool by
# Harold T. Stokes, Branton J. Campbell, Dorian M. Hatch
# Brigham Young University, Provo, Utah, USA
# which was used to update the structure information.
#
# The original header in COD and relevant COD data follows:
#------------------------------------------------------------------------------
#$Date: 2013-05-09 13:53:25 +0000 (Thu, 09 May 2013) $
#$Revision: 86000 $
#$URL: file:///home/coder/svn-repositories/cod/cif/9/01/61/9016170.cif $
#------------------------------------------------------------------------------
data_9016170
loop_
_publ_author_name
'Zintl, E.'
'Loosen, K.'
_publ_section_title
;
 Siliciumdisulfid, ein anorganischer Faserstoff mit Kettenmolekuelen.
 _cod_database_code 1010272
;
_journal_name_full
'Zeitschrift fur Physikalische Chemie, Abteilung A: Chemische'
_journal_page_first              301
_journal_page_last               311
_journal_volume                  174
_journal_year                    1935
_database_code_amcsd             0017198
_exptl_crystal_density_diffrn    3.511
_[local]_cod_chemical_formula_sum_orig 'Si S4'
_cod_database_code               9016170
_amcsd_formula_title             'S2 Si'

#
# Data extracted using the FINDSYM utility follows
#
 
_audit_creation_method FINDSYM
 
_symmetry_space_group_name_H-M "C 2/m 2/m 2/m"
_symmetry_space_group_name_Hall '-C 2 2'
_[local]_omdb_cod_original_Hall '-I 2b 2b'
_symmetry_Int_Tables_number 65
 
_cell_length_a    5.60000
_cell_length_b    9.55000
_cell_length_c    2.76500
_cell_angle_alpha 90.00000
_cell_angle_beta  90.00000
_cell_angle_gamma 90.00000
 
loop_
_space_group_symop_id
_space_group_symop_operation_xyz
1 x,y,z
2 x,-y,-z
3 -x,y,-z
4 -x,-y,z
5 -x,-y,-z
6 -x,y,z
7 x,-y,z
8 x,y,-z
9 x+1/2,y+1/2,z
10 x+1/2,-y+1/2,-z
11 -x+1/2,y+1/2,-z
12 -x+1/2,-y+1/2,z
13 -x+1/2,-y+1/2,-z
14 -x+1/2,y+1/2,z
15 x+1/2,-y+1/2,z
16 x+1/2,y+1/2,-z
 
loop_
_atom_site_label
_atom_site_type_symbol
_atom_site_symmetry_multiplicity
_atom_site_Wyckoff_label
_atom_site_fract_x
_atom_site_fract_y
_atom_site_fract_z
_atom_site_occupancy
Si1 Si 2 a 0.00000 0.00000 0.00000 1.0
S1 S 8 q 0.20800 0.11900 0.50000 1.0
 

