# CIF file
# This is a cif file prepared for use with the openmaterialsdb.se
#
# The cif file was imported from the Crystallography Open Database (COD)
# http://www.crystallography.net/
# based on data placed in the public domain by the contributors.
#
# The original file in cod had 
#COD-MD5: 5e934b04272868fef51db0afc16a9a13
#
# It was then processed with the FINDSYM tool by
# Harold T. Stokes, Branton J. Campbell, Dorian M. Hatch
# Brigham Young University, Provo, Utah, USA
# which was used to update the structure information.
#
# The original header in COD and relevant COD data follows:
#------------------------------------------------------------------------------
#$Date: 2014-07-12 08:06:43 +0000 (Sat, 12 Jul 2014) $
#$Revision: 120115 $
#$URL: file:///home/coder/svn-repositories/cod/cif/9/01/26/9012695.cif $
#------------------------------------------------------------------------------
data_9012695
loop_
_publ_author_name
'Boher, P.'
'Garnier, P.'
'Gavarri, J. R.'
'Hewat, A. W.'
_publ_section_title
;Monoxyde quadratique PbO alpha(I): Description de la transition structurale
 ferroelastique Method: Neutron Diffraction T = 30 K Locality: synthetic
;
_journal_name_full               'Journal of Solid State Chemistry'
_journal_page_first              343
_journal_page_last               350
_journal_volume                  57
_journal_year                    1985
_chemical_name_mineral           Litharge
_diffrn_ambient_temperature      30
_exptl_crystal_density_diffrn    9.433
_[local]_cod_chemical_formula_sum_orig 'Pb O'
_cod_database_code               9012695
_journal_paper_doi 10.1016/0022-4596(85)90197-5

#
# Data extracted using the FINDSYM utility follows
#
 
_audit_creation_method FINDSYM
 
_symmetry_space_group_name_H-M "C 2/m 2/m 2/a"
_symmetry_space_group_name_Hall '-C 2b 2'
_[local]_omdb_cod_original_Hall '-C 2b 2'
_symmetry_Int_Tables_number 67
 
_cell_length_a    5.61120
_cell_length_b    5.61015
_cell_length_c    4.99350
_cell_angle_alpha 90.00000
_cell_angle_beta  90.00000
_cell_angle_gamma 90.00000
 
loop_
_space_group_symop_id
_space_group_symop_operation_xyz
1 x,y,z
2 x,-y,-z
3 -x+1/2,y,-z
4 -x+1/2,-y,z
5 -x,-y,-z
6 -x,y,z
7 x+1/2,-y,z
8 x+1/2,y,-z
9 x+1/2,y+1/2,z
10 x+1/2,-y+1/2,-z
11 -x,y+1/2,-z
12 -x,-y+1/2,z
13 -x+1/2,-y+1/2,-z
14 -x+1/2,y+1/2,z
15 x,-y+1/2,z
16 x,y+1/2,-z
 
loop_
_atom_site_label
_atom_site_type_symbol
_atom_site_symmetry_multiplicity
_atom_site_Wyckoff_label
_atom_site_fract_x
_atom_site_fract_y
_atom_site_fract_z
_atom_site_occupancy
Pb1 Pb 4 g 0.00000 0.25000 0.23600 1.0
O1 O 4 a 0.25000 0.00000 0.00000 1.0
 

