# CIF file
# This is a cif file prepared for use with the openmaterialsdb.se
#
# The cif file was imported from the Crystallography Open Database (COD)
# http://www.crystallography.net/
# based on data placed in the public domain by the contributors.
#
# The original file in cod had 
#COD-MD5: b0c5e9e0f6adfd4142aa927c6d9ed6f9
#
# It was then processed with the FINDSYM tool by
# Harold T. Stokes, Branton J. Campbell, Dorian M. Hatch
# Brigham Young University, Provo, Utah, USA
# which was used to update the structure information.
#
# The original header in COD and relevant COD data follows:
#------------------------------------------------------------------------------
#$Date: 2013-05-05 14:21:46 +0000 (Sun, 05 May 2013) $
#$Revision: 85285 $
#$URL: file:///home/coder/svn-repositories/cod/cif/9/00/00/9000046.cif $
#------------------------------------------------------------------------------
data_9000046
loop_
_publ_author_name
'Kukesh, J. S.'
'Pauling, L.'
_publ_section_title
;
 The problem of the graphite structure
;
_journal_name_full               'American Mineralogist'
_journal_page_first              125
_journal_page_last               125
_journal_volume                  35
_journal_year                    1950
_chemical_name_common            Graphite
_chemical_name_mineral           Graphite
_exptl_crystal_density_diffrn    2.281
_cod_database_code               9000046

#
# Data extracted using the FINDSYM utility follows
#
 
_audit_creation_method FINDSYM
 
_symmetry_space_group_name_H-M "F 2/m 2/m 2/m"
_symmetry_space_group_name_Hall '-F 2 2'
_[local]_omdb_cod_original_Hall '-F 2 2'
_symmetry_Int_Tables_number 69
 
_cell_length_a    2.45600
_cell_length_b    6.69600
_cell_length_c    4.25400
_cell_angle_alpha 90.00000
_cell_angle_beta  90.00000
_cell_angle_gamma 90.00000
 
loop_
_space_group_symop_id
_space_group_symop_operation_xyz
1 x,y,z
2 x,-y,-z
3 -x,y,-z
4 -x,-y,z
5 -x,-y,-z
6 -x,y,z
7 x,-y,z
8 x,y,-z
9 x,y+1/2,z+1/2
10 x,-y+1/2,-z+1/2
11 -x,y+1/2,-z+1/2
12 -x,-y+1/2,z+1/2
13 -x,-y+1/2,-z+1/2
14 -x,y+1/2,z+1/2
15 x,-y+1/2,z+1/2
16 x,y+1/2,-z+1/2
17 x+1/2,y,z+1/2
18 x+1/2,-y,-z+1/2
19 -x+1/2,y,-z+1/2
20 -x+1/2,-y,z+1/2
21 -x+1/2,-y,-z+1/2
22 -x+1/2,y,z+1/2
23 x+1/2,-y,z+1/2
24 x+1/2,y,-z+1/2
25 x+1/2,y+1/2,z
26 x+1/2,-y+1/2,-z
27 -x+1/2,y+1/2,-z
28 -x+1/2,-y+1/2,z
29 -x+1/2,-y+1/2,-z
30 -x+1/2,y+1/2,z
31 x+1/2,-y+1/2,z
32 x+1/2,y+1/2,-z
 
loop_
_atom_site_label
_atom_site_type_symbol
_atom_site_symmetry_multiplicity
_atom_site_Wyckoff_label
_atom_site_fract_x
_atom_site_fract_y
_atom_site_fract_z
_atom_site_occupancy
C1 C 8 i 0.00000 0.00000 0.16667 1.0
 

