# CIF file
# This is a cif file prepared for use with the openmaterialsdb.se
#
# The cif file was imported from the Crystallography Open Database (COD)
# http://www.crystallography.net/
# based on data placed in the public domain by the contributors.
#
# The original file in cod had 
#COD-MD5: 6695ee89e3fb75b3a738250c3aa77dbc
#
# It was then processed with the FINDSYM tool by
# Harold T. Stokes, Branton J. Campbell, Dorian M. Hatch
# Brigham Young University, Provo, Utah, USA
# which was used to update the structure information.
#
# The original header in COD and relevant COD data follows:
#------------------------------------------------------------------------------
#$Date: 2013-05-05 14:21:46 +0000 (Sun, 05 May 2013) $
#$Revision: 85285 $
#$URL: file:///home/coder/svn-repositories/cod/cif/9/00/63/9006305.cif $
#------------------------------------------------------------------------------
data_9006305
loop_
_publ_author_name
'Boisen, M. B.'
'Gibbs, G. V.'
'Bukowinski, M. S. T.'
_publ_section_title
;
 Framework silica structures generated using simulated annealing
 with a potential energy function based on an H6Si2O7 molecule
 Sample: 22
;
_journal_name_full               'Physics and Chemistry of Minerals'
_journal_page_first              269
_journal_page_last               284
_journal_volume                  21
_journal_year                    1994
_exptl_crystal_density_diffrn    3.545
_[local]_cod_chemical_formula_sum_orig 'Si O2'
_cod_database_code               9006305

#
# Data extracted using the FINDSYM utility follows
#
 
_audit_creation_method FINDSYM
 
_symmetry_space_group_name_H-M "P 1 c 1"
_symmetry_space_group_name_Hall 'P -2yc'
_[local]_omdb_cod_original_Hall 'P -2yc'
_symmetry_Int_Tables_number 7
 
_cell_length_a    4.21660
_cell_length_b    4.02060
_cell_length_c    7.64230
_cell_angle_alpha 90.00000
_cell_angle_beta  119.66680
_cell_angle_gamma 90.00000
 
loop_
_space_group_symop_id
_space_group_symop_operation_xyz
1 x,y,z
2 x,-y,z+1/2
 
loop_
_atom_site_label
_atom_site_type_symbol
_atom_site_symmetry_multiplicity
_atom_site_Wyckoff_label
_atom_site_fract_x
_atom_site_fract_y
_atom_site_fract_z
_atom_site_occupancy
Si1 Si 2 a 0.00000 0.49891 0.00000 1.0
Si2 Si 2 a 0.30231 0.10448 0.37836 1.0
O1 O 2 a -0.01083 0.30762 0.18536 1.0
O2 O 2 a 0.13105 0.27048 0.86496 1.0
O3 O 2 a 0.34155 0.26088 0.58341 1.0
O4 O 2 a 0.68329 0.20774 0.38310 1.0
 

