# CIF file
# This is a cif file prepared for use with the openmaterialsdb.se
#
# The cif file was imported from the Crystallography Open Database (COD)
# http://www.crystallography.net/
# based on data placed in the public domain by the contributors.
#
# The original file in cod had 
#COD-MD5: 5bb147483c9290c9fceaaae027d096d3
#
# It was then processed with the FINDSYM tool by
# Harold T. Stokes, Branton J. Campbell, Dorian M. Hatch
# Brigham Young University, Provo, Utah, USA
# which was used to update the structure information.
#
# The original header in COD and relevant COD data follows:
#------------------------------------------------------------------------------
#$Date: 2014-07-12 08:06:43 +0000 (Sat, 12 Jul 2014) $
#$Revision: 120115 $
#$URL: file:///home/coder/svn-repositories/cod/cif/9/01/17/9011726.cif $
#------------------------------------------------------------------------------
data_9011726
loop_
_publ_author_name
'Winzenick, M.'
'Holzapfel, W. B.'
_publ_section_title
;
 Structural study on the high-pressure phase strontium III
 Locality: synthetic
 Sample: at P = 31.3 GPa
;
_journal_name_full               'Physical Review B - Condensed Matter'
_journal_page_first              2151
_journal_page_last               2154
_journal_volume                  53
_journal_year                    1996
_chemical_name_common            Strontium-III
_diffrn_ambient_pressure         3.13e+07
_exptl_crystal_density_diffrn    5.936
_cod_database_code               9011726
_journal_paper_doi 10.1103/PhysRevB.53.2151

#
# Data extracted using the FINDSYM utility follows
#
 
_audit_creation_method FINDSYM
 
_symmetry_space_group_name_H-M "I 21/m 21/m 21/a"
_symmetry_space_group_name_Hall '-I 2b 2'
_[local]_omdb_cod_original_Hall '-I 2b 2'
_symmetry_Int_Tables_number 74
 
_cell_length_a    5.62000
_cell_length_b    5.72000
_cell_length_c    3.05000
_cell_angle_alpha 90.00000
_cell_angle_beta  90.00000
_cell_angle_gamma 90.00000
 
loop_
_space_group_symop_id
_space_group_symop_operation_xyz
1 x,y,z
2 x,-y,-z
3 -x,y+1/2,-z
4 -x,-y+1/2,z
5 -x,-y,-z
6 -x,y,z
7 x,-y+1/2,z
8 x,y+1/2,-z
9 x+1/2,y+1/2,z+1/2
10 x+1/2,-y+1/2,-z+1/2
11 -x+1/2,y,-z+1/2
12 -x+1/2,-y,z+1/2
13 -x+1/2,-y+1/2,-z+1/2
14 -x+1/2,y+1/2,z+1/2
15 x+1/2,-y,z+1/2
16 x+1/2,y,-z+1/2
 
loop_
_atom_site_label
_atom_site_type_symbol
_atom_site_symmetry_multiplicity
_atom_site_Wyckoff_label
_atom_site_fract_x
_atom_site_fract_y
_atom_site_fract_z
_atom_site_occupancy
Sr1 Sr 4 e 0.00000 0.25000 0.62500 1.0
 

