# CIF file
# This is a cif file prepared for use with the openmaterialsdb.se
#
# The cif file was imported from the Crystallography Open Database (COD)
# http://www.crystallography.net/
# based on data placed in the public domain by the contributors.
#
# The original file in cod had 
#COD-MD5: b3ccdf18f891007af41287bb43a1ea8e
#
# It was then processed with the FINDSYM tool by
# Harold T. Stokes, Branton J. Campbell, Dorian M. Hatch
# Brigham Young University, Provo, Utah, USA
# which was used to update the structure information.
#
# The original header in COD and relevant COD data follows:
#------------------------------------------------------------------------------
#$Date: 2013-12-29 11:49:26 +0000 (Sun, 29 Dec 2013) $
#$Revision: 91935 $
#$URL: file:///home/coder/svn-repositories/cod/cif/4/02/56/4025692.cif $
#------------------------------------------------------------------------------
data_4025692
loop_
_publ_author_name
'Thanikachalam Gunasundari'
'Srinivasan Chandrasekaran'
_publ_contact_author_address
; 
 Department of Organic Chemistry
 Indian Institute of Science
 Bangalore, 560 012
 India
;
_publ_contact_author_email       scn@orgchem.iisc.ernet.in
_publ_contact_author_fax         '(91) 80 23602423'
_publ_contact_author_name
; 
 'Prof.S.Chandrasekaran'
;
_publ_contact_author_phone       '(91) 80 22932404'
_publ_section_title
;
 Enantioselective and Protecting Group-Free Synthesis of
 1-Deoxythionojirimycin, 1-Deoxythiomannojirimycin, and
 1-Deoxythiotalonojirimycin
;
_journal_name_full               'Journal of Organic Chemistry'
_journal_page_first              6685
_journal_page_last               6688
_journal_volume                  75
_journal_year                    2010
_chemical_absolute_configuration syn
_chemical_compound_source        'see text'
_computing_cell_refinement       'Bruker SMART'
_computing_data_collection       'Bruker SMART'
_computing_data_reduction        'Bruker SAINT'
_computing_molecular_graphics    'Bruker SHELXTL'
_computing_publication_material  'Bruker SHELXTL'
_computing_structure_refinement  'Bruker SHELXTL'
_computing_structure_solution    'Bruker SHELXTL'
_diffrn_ambient_temperature      296(2)
_diffrn_measured_fraction_theta_full 1
_diffrn_measured_fraction_theta_max 1
_diffrn_measurement_device_type  'CCD area detector'
_diffrn_measurement_method       'phi and omega scans'
_diffrn_radiation_monochromator  graphite
_diffrn_radiation_probe          x-ray
_diffrn_radiation_source         'fine-focus sealed tube'
_diffrn_radiation_type           MoK\a
_diffrn_radiation_wavelength     0.71073
_diffrn_reflns_av_R_equivalents  0.0182
_diffrn_reflns_av_sigmaI/netI    0.0337
_diffrn_reflns_limit_h_max       12
_diffrn_reflns_limit_h_min       -9
_diffrn_reflns_limit_k_max       12
_diffrn_reflns_limit_k_min       -5
_diffrn_reflns_limit_l_max       12
_diffrn_reflns_limit_l_min       -11
_diffrn_reflns_number            2974
_diffrn_reflns_reduction_process
;
 ?
;
_diffrn_reflns_theta_full        29.53
_diffrn_reflns_theta_max         29.53
_diffrn_reflns_theta_min         2.26
_exptl_absorpt_coefficient_mu    0.412
_exptl_absorpt_correction_T_max  0.9370
_exptl_absorpt_correction_T_min  0.8934
_exptl_absorpt_correction_type   multi-scan
_exptl_absorpt_process_details   'APEX 2 (Bruker)'
_exptl_crystal_colour            ' colorless'
_exptl_crystal_density_diffrn    1.638
_exptl_crystal_density_method    'Not Measured'
_exptl_crystal_description       ' block'
_exptl_crystal_F_000             368
_exptl_crystal_size_max          0.28
_exptl_crystal_size_mid          0.21
_exptl_crystal_size_min          0.16
_refine_diff_density_max         0.187
_refine_diff_density_min         -0.230
_refine_diff_density_rms         0.048
_refine_ls_abs_structure_details 'Flack H.D. (1983), Acta Cryst. A39, 876-881'
_refine_ls_abs_structure_Flack   0.03(10)
_refine_ls_extinction_method     ' none'
_refine_ls_goodness_of_fit_ref   1.045
_refine_ls_hydrogen_treatment    mixed
_refine_ls_matrix_type           full
_refine_ls_number_parameters     102
_refine_ls_number_reflns         1796
_refine_ls_number_restraints     1
_refine_ls_restrained_S_all      1.044
_refine_ls_R_factor_all          0.0410
_refine_ls_R_factor_gt           0.0350
_refine_ls_shift/su_max          0.015
_refine_ls_shift/su_mean         0.002
_refine_ls_structure_factor_coef Fsqd
_refine_ls_weighting_details
'calc w=1/[\s^2^(Fo^2^)+(0.1536P)^2^+0.0000P] where P=(Fo^2^+2Fc^2^)/3'
_refine_ls_weighting_scheme      calc
_refine_ls_wR_factor_gt          0.0838
_refine_ls_wR_factor_ref         0.0882
_reflns_number_gt                1602
_reflns_number_total             1796
_reflns_threshold_expression     >2sigma(I)
_[local]_cod_data_source_file    jo1010125_si_003.cif
_[local]_cod_data_source_block   tgsc248_0m
_cod_depositor_comments
;
The following automatic conversions were performed:

'_symmetry_cell_setting' value 'Tetragonal' changed to 'tetragonal'
according to the built-in table from CIF Core dictionary named
'cif_core.dic' version 2.4.1 from
2010-06-29.

'_atom_sites_solution_hydrogens' value ' geom' changed
to 'geom' according to the built-in table from CIF Core dictionary
named 'cif_core.dic' version 2.4.1 from
2010-06-29.

'_atom_sites_solution_primary' value ' direct' changed
to 'direct' according to the built-in table from CIF Core dictionary
named 'cif_core.dic' version 2.4.1 from
2010-06-29.

'_atom_sites_solution_secondary' value ' difmap' changed
to 'difmap' according to the built-in table from CIF Core dictionary
named 'cif_core.dic' version 2.4.1 from
2010-06-29.

'_refine_ls_hydrogen_treatment' value ' mixed' changed
to 'mixed' according to the built-in table from CIF Core dictionary
named 'cif_core.dic' version 2.4.1 from
2010-06-29.

'_refine_ls_weighting_scheme' value ' calc' changed to
'calc' according to the built-in table from CIF Core dictionary named
'cif_core.dic' version 2.4.1 from 2010-06-29.

Automatic conversion script
Id: cif_fix_values 1646 2011-03-28 12:23:43Z adriana 
;
_cod_database_code               4025692
_journal_paper_doi 10.1021/jo1010125

#
# Data extracted using the FINDSYM utility follows
#
 
_audit_creation_method FINDSYM
 
_symmetry_space_group_name_H-M "P 42"
_symmetry_space_group_name_Hall 'P 4c'
_[local]_omdb_cod_original_Hall 'P 4c'
_symmetry_Int_Tables_number 77
 
_cell_length_a    9.01000
_cell_length_b    9.01000
_cell_length_c    8.80210
_cell_angle_alpha 90.00000
_cell_angle_beta  90.00000
_cell_angle_gamma 90.00000
 
loop_
_space_group_symop_id
_space_group_symop_operation_xyz
1 x,y,z
2 -x,-y,z
3 -y,x,z+1/2
4 y,-x,z+1/2
 
loop_
_atom_site_label
_atom_site_type_symbol
_atom_site_symmetry_multiplicity
_atom_site_Wyckoff_label
_atom_site_fract_x
_atom_site_fract_y
_atom_site_fract_z
_atom_site_occupancy
S1 S 4 d 0.18360 0.35905 0.45298 1.0
O1 O 4 d -0.08328 0.18020 0.66340 1.0
O2 O 4 d 0.13075 0.19939 0.78887 1.0
O3 O 4 d 0.36240 0.43452 0.87000 1.0
O4 O 4 d 0.42599 0.12894 0.51930 1.0
H1 H 4 d 0.11680 0.10580 0.44730 1.0
H2 H 4 d 0.13940 0.46640 0.68880 1.0
H3 H 4 d 0.27150 0.54800 0.60850 1.0
H4 H 4 d 0.27860 0.00860 0.62590 1.0
H5 H 4 d 0.32240 0.51620 0.87000 1.0
H6 H 4 d 0.34740 0.15530 0.82960 1.0
H7 H 4 d 0.43400 0.36170 0.67220 1.0
H8 H 4 d 0.44630 0.04980 0.47830 1.0
C1 C 4 d 0.04960 0.18300 0.65970 1.0
C2 C 4 d 0.15400 0.17330 0.52590 1.0
C3 C 4 d 0.22970 0.45120 0.63070 1.0
C4 C 4 d 0.28810 0.20360 0.75040 1.0
C5 C 4 d 0.29350 0.11380 0.60200 1.0
C6 C 4 d 0.33900 0.36400 0.72620 1.0
 

