# CIF file
# This is a cif file prepared for use with the openmaterialsdb.se
#
# The cif file was imported from the Crystallography Open Database (COD)
# http://www.crystallography.net/
# based on data placed in the public domain by the contributors.
#
# The original file in cod had 
#COD-MD5: 31c0c95ff8517824d542fe4ddaaed4fb
#
# It was then processed with the FINDSYM tool by
# Harold T. Stokes, Branton J. Campbell, Dorian M. Hatch
# Brigham Young University, Provo, Utah, USA
# which was used to update the structure information.
#
# The original header in COD and relevant COD data follows:
#------------------------------------------------------------------------------
#$Date: 2013-04-08 09:29:56 +0000 (Mon, 08 Apr 2013) $
#$Revision: 80817 $
#$URL: file:///home/coder/svn-repositories/cod/cif/4/33/13/4331352.cif $
#------------------------------------------------------------------------------
data_4331352
loop_
_publ_author_name
'Weiwei Ju'
'Deng Zhang'
'Dunru Zhu'
'Yan Xu'
_publ_section_title
;
 l- and d-[Ln(HCO2)(SO4)(H2O)]n (Ln = La, Ce, Pr, Nd, and Eu): Chiral
 Enantiomerically 3D Architectures Constructed by Double -[Ln-O]n- Helices
;
_journal_name_full               'Inorganic Chemistry'
_journal_page_first              13373
_journal_page_last               13379
_journal_paper_doi               10.1021/ic302134m
_journal_volume                  51
_journal_year                    2012
_computing_cell_refinement       'SAINT (Bruker, 2005)'
_computing_data_collection       'APEX2 (Bruker, 2005)'
_computing_data_reduction        SAINT
_computing_molecular_graphics    SHELXTL
_computing_publication_material  SHELXTL
_computing_structure_refinement  'SHELXL-97 (Sheldrick, 1997)'
_computing_structure_solution    'SHELXS-97 (Sheldrick, 1990)'
_diffrn_ambient_temperature      296(2)
_diffrn_measured_fraction_theta_full 0.998
_diffrn_measured_fraction_theta_max 0.998
_diffrn_measurement_device_type  'Bruker Apex2 CCD'
_diffrn_measurement_method       '\w scans'
_diffrn_radiation_monochromator  graphite
_diffrn_radiation_source         'fine-focus sealed tube'
_diffrn_radiation_type           MoK\a
_diffrn_radiation_wavelength     0.71073
_diffrn_reflns_av_R_equivalents  0.0331
_diffrn_reflns_av_sigmaI/netI    0.0339
_diffrn_reflns_limit_h_max       8
_diffrn_reflns_limit_h_min       -8
_diffrn_reflns_limit_k_max       7
_diffrn_reflns_limit_k_min       -8
_diffrn_reflns_limit_l_max       14
_diffrn_reflns_limit_l_min       -14
_diffrn_reflns_number            4193
_diffrn_reflns_theta_full        25.92
_diffrn_reflns_theta_max         25.92
_diffrn_reflns_theta_min         2.92
_exptl_absorpt_coefficient_mu    8.846
_exptl_absorpt_correction_T_max  0.4716
_exptl_absorpt_correction_T_min  0.3318
_exptl_absorpt_correction_type   multi-scans
_exptl_crystal_colour            Green
_exptl_crystal_density_diffrn    3.477
_exptl_crystal_description       'tetragonal pyramid'
_exptl_crystal_F_000             560
_exptl_crystal_size_max          0.16
_exptl_crystal_size_mid          0.14
_exptl_crystal_size_min          0.10
_refine_diff_density_max         0.815
_refine_diff_density_min         -1.006
_refine_diff_density_rms         0.162
_refine_ls_abs_structure_details 'Flack H D (1983), Acta Cryst. A39, 876-881'
_refine_ls_abs_structure_Flack   -0.051(18)
_refine_ls_extinction_coef       0.286(5)
_refine_ls_extinction_expression Fc^*^=kFc[1+0.001xFc^2^\l^3^/sin(2\q)]^-1/4^
_refine_ls_extinction_method     SHELXL
_refine_ls_goodness_of_fit_ref   1.055
_refine_ls_hydrogen_treatment    mixed
_refine_ls_matrix_type           full
_refine_ls_number_parameters     102
_refine_ls_number_reflns         1109
_refine_ls_number_restraints     7
_refine_ls_restrained_S_all      1.052
_refine_ls_R_factor_all          0.0174
_refine_ls_R_factor_gt           0.0173
_refine_ls_shift/su_max          0.003
_refine_ls_shift/su_mean         0.000
_refine_ls_structure_factor_coef Fsqd
_refine_ls_weighting_details
'calc w=1/[\s^2^(Fo^2^)+(0.0194P)^2^+0.0000P] where P=(Fo^2^+2Fc^2^)/3'
_refine_ls_weighting_scheme      calc
_refine_ls_wR_factor_gt          0.0404
_refine_ls_wR_factor_ref         0.0405
_reflns_number_gt                1106
_reflns_number_total             1109
_reflns_threshold_expression     >2sigma(I)
_[local]_cod_data_source_file    ic302134m_si_001_03.cif
_[local]_cod_data_source_block   3
_cod_database_code               4331352

#
# Data extracted using the FINDSYM utility follows
#
 
_audit_creation_method FINDSYM
 
_symmetry_space_group_name_H-M "P 43"
_symmetry_space_group_name_Hall 'P 4cw'
_[local]_omdb_cod_original_Hall 'P 4cw'
_symmetry_Int_Tables_number 78
 
_cell_length_a    6.98730
_cell_length_b    6.98730
_cell_length_c    11.73730
_cell_angle_alpha 90.00000
_cell_angle_beta  90.00000
_cell_angle_gamma 90.00000
 
loop_
_space_group_symop_id
_space_group_symop_operation_xyz
1 x,y,z
2 -x,-y,z+1/2
3 -y,x,z+3/4
4 y,-x,z+1/4
 
loop_
_atom_site_label
_atom_site_type_symbol
_atom_site_symmetry_multiplicity
_atom_site_Wyckoff_label
_atom_site_fract_x
_atom_site_fract_y
_atom_site_fract_z
_atom_site_occupancy
Pr1 Pr 4 a 0.61399 0.13244 0.23073 1.0
S1 S 4 a 0.73662 0.11363 -0.07729 1.0
O1 O 4 a 0.61480 0.14090 0.02360 1.0
O2 O 4 a 0.61840 0.05830 0.82520 1.0
O3 O 4 a 0.65320 0.79110 0.14590 1.0
O4 O 4 a 0.65970 0.47640 0.15500 1.0
O5 O 4 a 0.75300 -0.06920 0.38780 1.0
O6 O 4 a 0.83410 0.29120 0.89350 1.0
O7 O 4 a 0.87870 -0.03900 -0.05440 1.0
C1 C 4 a 0.61110 0.63770 0.19410 1.0
H1 H 4 a 0.52700 0.63900 0.25500 1.0
H2 H 4 a 0.68000 0.89000 0.43700 1.0
H3 H 4 a 0.86200 -0.04400 0.41200 1.0
 

