# CIF file
# This is a cif file prepared for use with the openmaterialsdb.se
#
# The cif file was imported from the Crystallography Open Database (COD)
# http://www.crystallography.net/
# based on data placed in the public domain by the contributors.
#
# The original file in cod had 
#COD-MD5: 7cd929862770d51b37a848e59d2e16e3
#
# It was then processed with the FINDSYM tool by
# Harold T. Stokes, Branton J. Campbell, Dorian M. Hatch
# Brigham Young University, Provo, Utah, USA
# which was used to update the structure information.
#
# The original header in COD and relevant COD data follows:
#------------------------------------------------------------------------------
#$Date: 2012-02-28 12:14:52 +0000 (Tue, 28 Feb 2012) $
#$Revision: 35911 $
#$URL: file:///home/coder/svn-repositories/cod/cif/1/01/02/1010268.cif $
#------------------------------------------------------------------------------
data_1010268
_chemical_name_systematic          'Potassium nitrate(III)'
_publ_section_title
;
The Crystal Structure of Potassium Nitrite, K N O~2~
;
loop_
_publ_author_name                  'Ziegler, G E'
_journal_name_full
;
Zeitschrift fuer Kristallographie, Kristallgeometrie, Kristallphysik,
Kristallchemie (-144,1977)
;
_journal_coden_ASTM                ZEKGAX
_journal_volume                    94
_journal_year                      1936
_journal_page_first                491
_journal_page_last                 499
_cod_database_code 1010268

#
# Data extracted using the FINDSYM utility follows
#
 
_audit_creation_method FINDSYM
 
_symmetry_space_group_name_H-M "C 1 m 1"
_symmetry_space_group_name_Hall 'C -2y'
_[local]_omdb_cod_original_Hall 'C -2y'
_symmetry_Int_Tables_number 8
 
_cell_length_a    4.45000
_cell_length_b    4.99000
_cell_length_c    6.77632
_cell_angle_alpha 90.00000
_cell_angle_beta  101.75336
_cell_angle_gamma 90.00000
 
loop_
_space_group_symop_id
_space_group_symop_operation_xyz
1 x,y,z
2 x,-y,z
3 x+1/2,y+1/2,z
4 x+1/2,-y+1/2,z
 
loop_
_atom_site_label
_atom_site_type_symbol
_atom_site_symmetry_multiplicity
_atom_site_Wyckoff_label
_atom_site_fract_x
_atom_site_fract_y
_atom_site_fract_z
_atom_site_occupancy
K1 K 2 a 0.00000 0.00000 0.00000 1.0
N1 N 2 a 0.01400 0.00000 0.51400 1.0
O1 O 4 b 0.52700 0.30600 0.58300 1.0
 

