# CIF file
# This is a cif file prepared for use with the openmaterialsdb.se
#
# The cif file was imported from the Crystallography Open Database (COD)
# http://www.crystallography.net/
# based on data placed in the public domain by the contributors.
#
# The original file in cod had 
#COD-MD5: 230a13e906411d1f4640bd946d7eea72
#
# It was then processed with the FINDSYM tool by
# Harold T. Stokes, Branton J. Campbell, Dorian M. Hatch
# Brigham Young University, Provo, Utah, USA
# which was used to update the structure information.
#
# The original header in COD and relevant COD data follows:
#------------------------------------------------------------------------------
#$Date: 2013-12-28 13:58:47 +0000 (Sat, 28 Dec 2013) $
#$Revision: 91933 $
#$URL: file:///home/coder/svn-repositories/cod/cif/2/20/46/2204673.cif $
#------------------------------------------------------------------------------
data_2204673
loop_
_publ_author_name
'Beckmann, Jens'
'Dakternieks, Dainis'
'Duthie, Andrew'
'Mitchell, Cassandra'
_publ_section_title
;
 Dibromodiphenyltellurium(IV)
;
_journal_issue                   12
_journal_name_full               'Acta Crystallographica Section E'
_journal_page_first              o2511
_journal_page_last               o2512
_journal_volume                  60
_journal_year                    2004
_chemical_name_common            'Diphenyltellurium dibromide'
_computing_cell_refinement       SMART
_computing_data_collection       'SMART (Bruker, 2000)'
_computing_data_reduction        'SAINT (Bruker, 2000)'
_computing_molecular_graphics    'DIAMOND (Brandenburg, 1996)'
_computing_publication_material  SHELXL97
_computing_structure_refinement  'SHELXL97 (Sheldrick, 1997)'
_computing_structure_solution    'SHELXS97 (Sheldrick, 1997)'
_diffrn_ambient_temperature      295(2)
_diffrn_measured_fraction_theta_full 0.990
_diffrn_measured_fraction_theta_max 0.990
_diffrn_measurement_device_type  'Bruker SMART CCD area-detector'
_diffrn_measurement_method       '\f and \w'
_diffrn_radiation_monochromator  graphite
_diffrn_radiation_source         'fine-focus sealed tube'
_diffrn_radiation_type           MoK\a
_diffrn_radiation_wavelength     0.71073
_diffrn_reflns_av_R_equivalents  0.0272
_diffrn_reflns_av_sigmaI/netI    0.0382
_diffrn_reflns_limit_h_max       8
_diffrn_reflns_limit_h_min       -14
_diffrn_reflns_limit_k_max       14
_diffrn_reflns_limit_k_min       -14
_diffrn_reflns_limit_l_max       12
_diffrn_reflns_limit_l_min       -12
_diffrn_reflns_number            3889
_diffrn_reflns_theta_full        27.42
_diffrn_reflns_theta_max         27.42
_diffrn_reflns_theta_min         2.52
_exptl_absorpt_coefficient_mu    8.518
_exptl_absorpt_correction_T_max  0.050
_exptl_absorpt_correction_T_min  0.043
_exptl_absorpt_correction_type   multi-scan
_exptl_absorpt_process_details   '(SADABS; Bruker, 2000)'
_exptl_crystal_colour            yellow
_exptl_crystal_density_diffrn    2.288
_exptl_crystal_density_method    'not measured'
_exptl_crystal_description       block
_exptl_crystal_F_000             816
_exptl_crystal_size_max          0.40
_exptl_crystal_size_mid          0.35
_exptl_crystal_size_min          0.35
_refine_diff_density_max         0.735
_refine_diff_density_min         -0.310
_refine_ls_abs_structure_details 'Flack (1983)'
_refine_ls_abs_structure_Flack   0.069(16)
_refine_ls_extinction_method     none
_refine_ls_goodness_of_fit_ref   1.059
_refine_ls_hydrogen_treatment    constr
_refine_ls_matrix_type           full
_refine_ls_number_parameters     69
_refine_ls_number_reflns         1419
_refine_ls_number_restraints     1
_refine_ls_restrained_S_all      1.058
_refine_ls_R_factor_all          0.0314
_refine_ls_R_factor_gt           0.0287
_refine_ls_shift/su_max          0.000
_refine_ls_shift/su_mean         0.000
_refine_ls_structure_factor_coef Fsqd
_refine_ls_weighting_details
'calc w=1/[\s^2^(Fo^2^)+(0.0337P)^2^] where P = (Fo^2^+2Fc^2^)/3'
_refine_ls_weighting_scheme      calc
_refine_ls_wR_factor_gt          0.0693
_refine_ls_wR_factor_ref         0.0700
_reflns_number_gt                1323
_reflns_number_total             1419
_reflns_threshold_expression     I>2\s(I)
_[local]_cod_data_source_file    dn6177.cif
_[local]_cod_data_source_block   I
_cod_depositor_comments
;
The following automatic conversions were performed:
'_symmetry_cell_setting' value 'Tetragonal' changed to 'tetragonal'
according to '/home/saulius/struct/CIF-dictionaries/cif_core.dic'
dictionary named 'cif_core.dic' version 2.4.1 from 2010-06-29.

Automatic conversion script
Id: cif_fix_enum 1527 2010-12-29 10:47:43Z saulius 

The following automatic conversions were performed:

'_symmetry_cell_setting' value 'Tetragonal' changed to 'tetragonal'
according to /home/saulius/struct/CIF-dictionaries/cif_core.dic
dictionary named 'cif_core.dic' version 2.4.1 from 2010-06-29.

Automatic conversion script
Id: cif_fix_values 1715 2011-07-08 13:25:40Z adriana 
;
_cod_database_code               2204673
_cod_database_fobs_code 2204673
_journal_paper_doi 10.1107/S1600536804028284

#
# Data extracted using the FINDSYM utility follows
#
 
_audit_creation_method FINDSYM
 
_symmetry_space_group_name_H-M "I 41"
_symmetry_space_group_name_Hall 'I 4bw'
_[local]_omdb_cod_original_Hall 'I 4bw'
_symmetry_Int_Tables_number 80
 
_cell_length_a    11.43450
_cell_length_b    11.43450
_cell_length_c    9.80680
_cell_angle_alpha 90.00000
_cell_angle_beta  90.00000
_cell_angle_gamma 90.00000
 
loop_
_space_group_symop_id
_space_group_symop_operation_xyz
1 x,y,z
2 -x,-y,z
3 -y,x+1/2,z+1/4
4 y,-x+1/2,z+1/4
5 x+1/2,y+1/2,z+1/2
6 -x+1/2,-y+1/2,z+1/2
7 -y+1/2,x,z+3/4
8 y+1/2,-x,z+3/4
 
loop_
_atom_site_label
_atom_site_type_symbol
_atom_site_symmetry_multiplicity
_atom_site_Wyckoff_label
_atom_site_fract_x
_atom_site_fract_y
_atom_site_fract_z
_atom_site_occupancy
C1 C 8 b -0.00410 0.13950 0.07280 1.0
C2 C 8 b -0.08830 0.22390 0.08333 1.0
C3 C 8 b 0.41300 0.81780 0.49090 1.0
C4 C 8 b 0.49570 0.82310 0.39370 1.0
C5 C 8 b 0.58040 0.64540 0.47100 1.0
C6 C 8 b 0.58070 0.73830 0.38190 1.0
H1 H 8 b 0.35670 0.87630 0.49700 1.0
H2 H 8 b 0.49550 0.88540 0.33290 1.0
H3 H 8 b 0.63640 0.58680 0.46320 1.0
H4 H 8 b 0.63760 0.74390 0.31450 1.0
H5 H 8 b 0.85450 0.21920 0.15060 1.0
Br1 Br 8 b 0.23428 0.00944 0.22344 1.0
Te1 Te 4 a 0.00000 0.00000 0.21703 1.0
 

