# CIF file
# This is a cif file prepared for use with the openmaterialsdb.se
#
# The cif file was imported from the Crystallography Open Database (COD)
# http://www.crystallography.net/
# based on data placed in the public domain by the contributors.
#
# The original file in cod had 
#COD-MD5: bb48f430c0d7e98ca37a624fb97ceebf
#
# It was then processed with the FINDSYM tool by
# Harold T. Stokes, Branton J. Campbell, Dorian M. Hatch
# Brigham Young University, Provo, Utah, USA
# which was used to update the structure information.
#
# The original header in COD and relevant COD data follows:
#------------------------------------------------------------------------------
#$Date: 2012-02-28 12:14:52 +0000 (Tue, 28 Feb 2012) $
#$Revision: 35911 $
#$URL: file:///home/coder/svn-repositories/cod/cif/1/01/01/1010142.cif $
#------------------------------------------------------------------------------
data_1010142
_chemical_name_systematic          'Aluminium phosphate'
_publ_section_title
;
La struttura cristallina di alcuni fosfati ed arseniati di metalli
trivalenti. I. Fosfato ed arseniato di alluminio
;
loop_
_publ_author_name                  'Strada, M'
_journal_name_full                 'Gazzetta Chimica Italiana'
_journal_coden_ASTM                GCITA9
_journal_volume                    64
_journal_year                      1934
_journal_page_first                653
_journal_page_last                 662
_exptl_crystal_density_meas        2.31
_cod_database_code 1010142

#
# Data extracted using the FINDSYM utility follows
#
 
_audit_creation_method FINDSYM
 
_symmetry_space_group_name_H-M "I -4"
_symmetry_space_group_name_Hall 'I -4'
_[local]_omdb_cod_original_Hall 'I -4'
_symmetry_Int_Tables_number 82
 
_cell_length_a    4.85000
_cell_length_b    4.85000
_cell_length_c    6.60000
_cell_angle_alpha 90.00000
_cell_angle_beta  90.00000
_cell_angle_gamma 90.00000
 
loop_
_space_group_symop_id
_space_group_symop_operation_xyz
1 x,y,z
2 -x,-y,z
3 y,-x,-z
4 -y,x,-z
5 x+1/2,y+1/2,z+1/2
6 -x+1/2,-y+1/2,z+1/2
7 y+1/2,-x+1/2,-z+1/2
8 -y+1/2,x+1/2,-z+1/2
 
loop_
_atom_site_label
_atom_site_type_symbol
_atom_site_symmetry_multiplicity
_atom_site_Wyckoff_label
_atom_site_fract_x
_atom_site_fract_y
_atom_site_fract_z
_atom_site_occupancy
Al1 Al 2 a 0.00000 0.00000 0.00000 1.0
P1 P 2 c 0.00000 0.50000 0.25000 1.0
O1 O 8 g 0.75990 0.26200 0.37000 1.0
 

