# CIF file
# This is a cif file prepared for use with the openmaterialsdb.se
#
# The cif file was imported from the Crystallography Open Database (COD)
# http://www.crystallography.net/
# based on data placed in the public domain by the contributors.
#
# The original file in cod had 
#COD-MD5: 8c9841fb99a4f211b3ee8d7619f26677
#
# It was then processed with the FINDSYM tool by
# Harold T. Stokes, Branton J. Campbell, Dorian M. Hatch
# Brigham Young University, Provo, Utah, USA
# which was used to update the structure information.
#
# The original header in COD and relevant COD data follows:
#------------------------------------------------------------------------------
#$Date: 2014-07-11 14:35:18 +0000 (Fri, 11 Jul 2014) $
#$Revision: 120071 $
#$URL: file:///home/coder/svn-repositories/cod/cif/1/50/92/1509211.cif $
#------------------------------------------------------------------------------
data_1509211
loop_
_publ_author_name
'Bartlett, N.'
'Hagiwara, R.'
'Lucier, G.'
'Borrmann, H.'
'Casteel, W.J.jr.'
_publ_section_title
;
 Structural and magnetic properties of some (Ag F)(+) salts
;
_journal_name_full               'Journal of Solid State Chemistry'
_journal_page_first              84
_journal_page_last               96
_journal_volume                  96
_journal_year                    1992
_chemical_name_systematic        '(Ag F) (B F4)'
_citation_journal_id_ASTM        JSSCBI
_[local]_cod_data_source_file    silver1-2_56.cif
_[local]_cod_data_source_block   Ag1B1F5
_[local]_cod_chemical_formula_sum_orig 'Ag1 B1 F5'
_cod_original_cell_volume        180.0538
_cod_database_code               1509211
_journal_paper_doi 10.1016/S0022-4596(05)80300-7

#
# Data extracted using the FINDSYM utility follows
#
 
_audit_creation_method FINDSYM
 
_symmetry_space_group_name_H-M "P 4/n (origin choice 2)"
_symmetry_space_group_name_Hall '-P 4a'
_[local]_omdb_cod_original_Hall '-P 4a'
_symmetry_Int_Tables_number 85
 
_cell_length_a    6.69950
_cell_length_b    6.69950
_cell_length_c    4.01160
_cell_angle_alpha 90.00000
_cell_angle_beta  90.00000
_cell_angle_gamma 90.00000
 
loop_
_space_group_symop_id
_space_group_symop_operation_xyz
1 x,y,z
2 -x+1/2,-y+1/2,z
3 -y+1/2,x,z
4 y,-x+1/2,z
5 -x,-y,-z
6 x+1/2,y+1/2,-z
7 y+1/2,-x,-z
8 -y,x+1/2,-z
 
loop_
_atom_site_label
_atom_site_type_symbol
_atom_site_symmetry_multiplicity
_atom_site_Wyckoff_label
_atom_site_fract_x
_atom_site_fract_y
_atom_site_fract_z
_atom_site_occupancy
F1 F 2 c 0.25000 0.25000 0.30660 1.0
F2 F 8 g 0.81360 0.09140 0.19840 1.0
Ag1 Ag 2 c 0.25000 0.25000 0.80764 1.0
B1 B 2 a 0.25000 0.75000 0.00000 1.0
 

