# CIF file
# This is a cif file prepared for use with the openmaterialsdb.se
#
# The cif file was imported from the Crystallography Open Database (COD)
# http://www.crystallography.net/
# based on data placed in the public domain by the contributors.
#
# The original file in cod had 
#COD-MD5: ff3ea8004cc675e06ba6feb20ba6e2b7
#
# It was then processed with the FINDSYM tool by
# Harold T. Stokes, Branton J. Campbell, Dorian M. Hatch
# Brigham Young University, Provo, Utah, USA
# which was used to update the structure information.
#
# The original header in COD and relevant COD data follows:
#------------------------------------------------------------------------------
#$Date: 2013-05-05 14:21:46 +0000 (Sun, 05 May 2013) $
#$Revision: 85285 $
#$URL: file:///home/coder/svn-repositories/cod/cif/9/00/90/9009088.cif $
#------------------------------------------------------------------------------
data_9009088
loop_
_publ_author_name
'Wyckoff, R. W. G.'
_publ_section_title
;
 Second edition. Interscience Publishers, New York, New York
;
_journal_name_full               'Crystal Structures'
_journal_page_first              239
_journal_page_last               444
_journal_volume                  1
_journal_year                    1963
_chemical_name_mineral           Paratellurite
_exptl_crystal_density_diffrn    6.034
_[local]_cod_chemical_formula_sum_orig 'Te O2'
_cod_database_code               9009088

#
# Data extracted using the FINDSYM utility follows
#
 
_audit_creation_method FINDSYM
 
_symmetry_space_group_name_H-M "P 41 21 2"
_symmetry_space_group_name_Hall 'P 4abw 2nw'
_[local]_omdb_cod_original_Hall 'P 4abw 2nw'
_symmetry_Int_Tables_number 92
 
_cell_length_a    4.80500
_cell_length_b    4.80500
_cell_length_c    7.60900
_cell_angle_alpha 90.00000
_cell_angle_beta  90.00000
_cell_angle_gamma 90.00000
 
loop_
_space_group_symop_id
_space_group_symop_operation_xyz
1 x,y,z
2 x+1/2,-y+1/2,-z+3/4
3 -x+1/2,y+1/2,-z+1/4
4 -x,-y,z+1/2
5 -y,-x,-z+1/2
6 -y+1/2,x+1/2,z+1/4
7 y+1/2,-x+1/2,z+3/4
8 y,x,-z
 
loop_
_atom_site_label
_atom_site_type_symbol
_atom_site_symmetry_multiplicity
_atom_site_Wyckoff_label
_atom_site_fract_x
_atom_site_fract_y
_atom_site_fract_z
_atom_site_occupancy
Te1 Te 4 a 0.53000 0.53000 0.00000 1.0
O1 O 8 b 0.67700 0.72700 0.21700 1.0
 

