# CIF file
# This is a cif file prepared for use with the openmaterialsdb.se
#
# The cif file was imported from the Crystallography Open Database (COD)
# http://www.crystallography.net/
# based on data placed in the public domain by the contributors.
#
# The original file in cod had 
#COD-MD5: a10d3f5c53557f865d8a9ee7fc10770a
#
# It was then processed with the FINDSYM tool by
# Harold T. Stokes, Branton J. Campbell, Dorian M. Hatch
# Brigham Young University, Provo, Utah, USA
# which was used to update the structure information.
#
# The original header in COD and relevant COD data follows:
#------------------------------------------------------------------------------
#$Date: 2014-07-11 14:35:18 +0000 (Fri, 11 Jul 2014) $
#$Revision: 120071 $
#$URL: file:///home/coder/svn-repositories/cod/cif/1/00/80/1008093.cif $
#------------------------------------------------------------------------------
data_1008093
_chemical_name_systematic          'Dimanganese titanium oxide'
_publ_section_title
;
Etude par diffraction neutronique de la forme ordonnee de l'
orthotitanate de manganese - structure cristalline et structure
magnetique
;
loop_
_publ_author_name
  'Bertaut, E F'
  'Vincent, H'
_journal_name_full                 'Solid State Communications'
_journal_coden_ASTM                SSCOA4
_journal_volume                    6
_journal_year                      1968
_journal_page_first                269
_journal_page_last                 275
_refine_ls_R_factor_all            0.08
_cod_database_code 1008093
_journal_paper_doi 10.1016/0038-1098(68)90102-6

#
# Data extracted using the FINDSYM utility follows
#
 
_audit_creation_method FINDSYM
 
_symmetry_space_group_name_H-M "P 43 2 2"
_symmetry_space_group_name_Hall 'P 4cw 2c'
_[local]_omdb_cod_original_Hall 'P 4cw 2c'
_symmetry_Int_Tables_number 95
 
_cell_length_a    6.17000
_cell_length_b    6.17000
_cell_length_c    8.56400
_cell_angle_alpha 90.00000
_cell_angle_beta  90.00000
_cell_angle_gamma 90.00000
 
loop_
_space_group_symop_id
_space_group_symop_operation_xyz
1 x,y,z
2 x,-y,-z+1/2
3 -x,y,-z
4 -x,-y,z+1/2
5 -y,-x,-z+3/4
6 -y,x,z+3/4
7 y,-x,z+1/4
8 y,x,-z+1/4
 
loop_
_atom_site_label
_atom_site_type_symbol
_atom_site_symmetry_multiplicity
_atom_site_Wyckoff_label
_atom_site_fract_x
_atom_site_fract_y
_atom_site_fract_z
_atom_site_occupancy
O1 O 8 d 0.27200 0.01100 0.50900 1.0
O2 O 8 d 0.29200 0.52100 0.51500 1.0
Ti1 Ti 4 b 0.50000 0.75300 0.00000 1.0
Mn1 Mn 4 a 0.00000 0.75800 0.00000 1.0
Mn2 Mn 4 c 0.75900 0.75900 0.62500 1.0
 

