# CIF file
# This is a cif file prepared for use with the openmaterialsdb.se
#
# The cif file was imported from the Crystallography Open Database (COD)
# http://www.crystallography.net/
# based on data placed in the public domain by the contributors.
#
# The original file in cod had 
#COD-MD5: b28b012fde3ae64b1f3fe600b89ebb9c
#
# It was then processed with the FINDSYM tool by
# Harold T. Stokes, Branton J. Campbell, Dorian M. Hatch
# Brigham Young University, Provo, Utah, USA
# which was used to update the structure information.
#
# The original header in COD and relevant COD data follows:
#------------------------------------------------------------------------------
#$Date: 2013-05-05 14:21:46 +0000 (Sun, 05 May 2013) $
#$Revision: 85285 $
#$URL: file:///home/coder/svn-repositories/cod/cif/9/00/95/9009559.cif $
#------------------------------------------------------------------------------
data_9009559
loop_
_publ_author_name
'Sokolova, E. V.'
'Rybakov, V. B.'
'Pautov, L. A.'
'Pushcharovsky D Yu'
_publ_section_title
;
 Structural changes in tsaregorodtsevite
 Note: T = 870 C
;
_journal_name_full               'Doklady Akademii Nauk SSSR'
_journal_page_first              309
_journal_page_last               312
_journal_volume                  332
_journal_year                    1993
_chemical_name_mineral           Tsaregorodtsevite
_diffrn_ambient_temperature      1143.15
_exptl_crystal_density_diffrn    2.202
_[local]_cod_chemical_formula_sum_orig 'N C8 Si5 Al O12'
_cod_database_code               9009559

#
# Data extracted using the FINDSYM utility follows
#
 
_audit_creation_method FINDSYM
 
_symmetry_space_group_name_H-M "I 4 2 2"
_symmetry_space_group_name_Hall 'I 4 2'
_[local]_omdb_cod_original_Hall 'I 4 2'
_symmetry_Int_Tables_number 97
 
_cell_length_a    8.90800
_cell_length_b    8.90800
_cell_length_c    8.92500
_cell_angle_alpha 90.00000
_cell_angle_beta  90.00000
_cell_angle_gamma 90.00000
 
loop_
_space_group_symop_id
_space_group_symop_operation_xyz
1 x,y,z
2 x,-y,-z
3 -x,y,-z
4 -x,-y,z
5 -y,-x,-z
6 -y,x,z
7 y,-x,z
8 y,x,-z
9 x+1/2,y+1/2,z+1/2
10 x+1/2,-y+1/2,-z+1/2
11 -x+1/2,y+1/2,-z+1/2
12 -x+1/2,-y+1/2,z+1/2
13 -y+1/2,-x+1/2,-z+1/2
14 -y+1/2,x+1/2,z+1/2
15 y+1/2,-x+1/2,z+1/2
16 y+1/2,x+1/2,-z+1/2
 
loop_
_atom_site_label
_atom_site_type_symbol
_atom_site_symmetry_multiplicity
_atom_site_Wyckoff_label
_atom_site_fract_x
_atom_site_fract_y
_atom_site_fract_z
_atom_site_occupancy
N1 N 2 a 0.00000 0.00000 0.00000 1.0
C1 C 16 k 0.60500 0.57000 0.41200 1.0
Si1 Si 8 i 0.75110 0.00000 0.50000 1.0
Si2 Si 4 d 0.00000 0.50000 0.25000 0.5
Al1 Al 4 d 0.00000 0.50000 0.25000 0.5
O1 O 8 g 0.35390 0.35390 0.00000 1.0
O2 O 16 k 0.49000 0.85030 0.14620 1.0
 

