# CIF file
# This is a cif file prepared for use with the openmaterialsdb.se
#
# The cif file was imported from the Crystallography Open Database (COD)
# http://www.crystallography.net/
# based on data placed in the public domain by the contributors.
#
# The original file in cod had 
#COD-MD5: d2daad1ecd060e63e368f0c5c6818ba0
#
# It was then processed with the FINDSYM tool by
# Harold T. Stokes, Branton J. Campbell, Dorian M. Hatch
# Brigham Young University, Provo, Utah, USA
# which was used to update the structure information.
#
# The original header in COD and relevant COD data follows:
#------------------------------------------------------------------------------
#$Date: 2013-05-09 13:53:25 +0000 (Thu, 09 May 2013) $
#$Revision: 86000 $
#$URL: file:///home/coder/svn-repositories/cod/cif/9/01/64/9016419.cif $
#------------------------------------------------------------------------------
data_9016419
loop_
_publ_author_name
'Strada, M.'
_publ_section_title
;
 Ricerche sulla struttura dei pseudo-alogeni e dei loro composti. - I.
 Tiocianato di tallio
 _cod_database_code 1010348
;
_journal_name_full               'Gazzetta Chimica Italiana'
_journal_page_first              400
_journal_page_last               409
_journal_volume                  64
_journal_year                    1934
_database_code_amcsd             0017274
_exptl_crystal_density_diffrn    4.185
_[local]_cod_chemical_formula_sum_orig 'Tl C'
_cod_database_code               9016419
_amcsd_formula_title             'N S Tl'

#
# Data extracted using the FINDSYM utility follows
#
 
_audit_creation_method FINDSYM
 
_symmetry_space_group_name_H-M "P 4 m m"
_symmetry_space_group_name_Hall 'P 4 -2'
_[local]_omdb_cod_original_Hall 'P 4'
_symmetry_Int_Tables_number 99
 
_cell_length_a    4.76600
_cell_length_b    4.76600
_cell_length_c    3.78000
_cell_angle_alpha 90.00000
_cell_angle_beta  90.00000
_cell_angle_gamma 90.00000
 
loop_
_space_group_symop_id
_space_group_symop_operation_xyz
1 x,y,z
2 -x,-y,z
3 -y,x,z
4 y,-x,z
5 -x,y,z
6 x,-y,z
7 y,x,z
8 -y,-x,z
 
loop_
_atom_site_label
_atom_site_type_symbol
_atom_site_symmetry_multiplicity
_atom_site_Wyckoff_label
_atom_site_fract_x
_atom_site_fract_y
_atom_site_fract_z
_atom_site_occupancy
Tl1 Tl 1 a 0.00000 0.00000 0.00000 1.0
C1 C 1 b 0.50000 0.50000 0.29000 1.0
 

